    1C
    1UModel: Box                                                        
    1UUSER                                                              
    1UDATE              29.october.2025                                 
    1UTIME              15:44:02                                        
    1UHOST                                                              
    1UPGM               CalculiX                                        
    1UVERSION           Version 2.21                             
    1UCOMPILETIME       Sat Jul 29 10:52:01 CEST 2023                    
    1UDIR                                                               
    1UDBN                                                               
    1UMAT    1MAT1                                                      
    2C                            36                                     1
 -1   1000001 0.00000E+00 0.00000E+00 5.00000E-01
 -1   1000002 0.00000E+00 0.00000E+00 0.00000E+00
 -1   1000003 0.00000E+00 1.00000E+00 5.00000E-01
 -1   1000004 0.00000E+00 1.00000E+00 0.00000E+00
 -1   1000005 1.00000E+00 0.00000E+00 5.00000E-01
 -1   1000006 1.00000E+00 0.00000E+00 0.00000E+00
 -1   1000007 1.00000E+00 1.00000E+00 5.00000E-01
 -1   1000008 1.00000E+00 1.00000E+00 0.00000E+00
 -1   1000009 0.00000E+00 5.00000E-01 5.00000E-01
 -1   1000010 0.00000E+00 5.00000E-01 0.00000E+00
 -1   1000011 1.00000E+00 5.00000E-01 5.00000E-01
 -1   1000012 1.00000E+00 5.00000E-01 0.00000E+00
 -1   1000013 5.00000E-01 0.00000E+00 0.00000E+00
 -1   1000014 5.00000E-01 0.00000E+00 5.00000E-01
 -1   1000015 5.00000E-01 1.00000E+00 0.00000E+00
 -1   1000016 5.00000E-01 1.00000E+00 5.00000E-01
 -1   1000017 5.00000E-01 5.00000E-01 0.00000E+00
 -1   1000018 5.00000E-01 5.00000E-01 5.00000E-01
 -1   2000001 0.00000E+00 0.00000E+00 5.00000E-01
 -1   2000002 0.00000E+00 0.00000E+00 1.00000E+00
 -1   2000003 0.00000E+00 1.00000E+00 1.00000E+00
 -1   2000004 0.00000E+00 1.00000E+00 5.00000E-01
 -1   2000005 1.00000E+00 0.00000E+00 5.00000E-01
 -1   2000006 1.00000E+00 0.00000E+00 1.00000E+00
 -1   2000007 1.00000E+00 1.00000E+00 1.00000E+00
 -1   2000008 1.00000E+00 1.00000E+00 5.00000E-01
 -1   2000009 0.00000E+00 5.00000E-01 1.00000E+00
 -1   2000010 0.00000E+00 5.00000E-01 5.00000E-01
 -1   2000011 5.00000E-01 0.00000E+00 1.00000E+00
 -1   2000012 5.00000E-01 0.00000E+00 5.00000E-01
 -1   2000013 5.00000E-01 1.00000E+00 1.00000E+00
 -1   2000014 1.00000E+00 5.00000E-01 1.00000E+00
 -1   2000015 5.00000E-01 1.00000E+00 5.00000E-01
 -1   2000016 1.00000E+00 5.00000E-01 5.00000E-01
 -1   2000017 5.00000E-01 5.00000E-01 1.00000E+00
 -1   2000018 5.00000E-01 5.00000E-01 5.00000E-01
 -3
    3C                             8                                     1
 -1   1000037    1    0    1
 -2   1000001   1000002   1000010   1000009   1000014   1000013   1000017   1000018
 -1   1000038    1    0    1
 -2   1000014   1000013   1000017   1000018   1000005   1000006   1000012   1000011
 -1   1000039    1    0    1
 -2   1000009   1000010   1000004   1000003   1000018   1000017   1000015   1000016
 -1   1000040    1    0    1
 -2   1000018   1000017   1000015   1000016   1000011   1000012   1000008   1000007
 -1   2000037    1    0    1
 -2   2000002   2000001   2000010   2000009   2000011   2000012   2000018   2000017
 -1   2000038    1    0    1
 -2   2000011   2000012   2000018   2000017   2000006   2000005   2000016   2000014
 -1   2000039    1    0    1
 -2   2000009   2000010   2000004   2000003   2000017   2000018   2000015   2000013
 -1   2000040    1    0    1
 -2   2000017   2000018   2000015   2000013   2000014   2000016   2000008   2000007
 -3
    1PSTEP                         1           1           1          
    1PGM                1.000000E+00                                  
    1PGK                9.466328E+07                                  
    1PHID                         -1                                  
    1PSUBC                         0                                  
    1PMODE                         1                                  
  100CL  101 1548.498879          36                     2    1MODAL      1
 -4  DISP        4    1
 -5  D1          1    2    1    0
 -5  D2          1    2    2    0
 -5  D3          1    2    3    0
 -5  ALL         1    2    0    0    1ALL
 -1   1000001 1.59334E-02 1.67370E-02 1.35986E-02
 -1   1000002 0.00000E+00 0.00000E+00 0.00000E+00
 -1   1000003 9.92919E-03 1.11733E-02-5.17849E-04
 -1   1000004 0.00000E+00 0.00000E+00 0.00000E+00
 -1   1000005 9.92919E-03 1.11733E-02 5.17849E-04
 -1   1000006 0.00000E+00 0.00000E+00 0.00000E+00
 -1   1000007 1.59334E-02 1.67370E-02-1.35986E-02
 -1   1000008 0.00000E+00 0.00000E+00 0.00000E+00
 -1   1000009 1.40328E-02 1.23897E-02 5.66495E-03
 -1   1000010 0.00000E+00 0.00000E+00 0.00000E+00
 -1   1000011 1.40328E-02 1.23897E-02-5.66495E-03
 -1   1000012 0.00000E+00 0.00000E+00 0.00000E+00
 -1   1000013 0.00000E+00 0.00000E+00 0.00000E+00
 -1   1000014 1.14807E-02 1.51438E-02 6.11348E-03
 -1   1000015 0.00000E+00 0.00000E+00 0.00000E+00
 -1   1000016 1.14807E-02 1.51438E-02-6.11348E-03
 -1   1000017 0.00000E+00 0.00000E+00 0.00000E+00
 -1   1000018 1.27981E-02 1.38115E-02-3.46945E-18
 -1   2000001 1.59334E-02 1.67370E-02-1.35986E-02
 -1   2000002 0.00000E+00 0.00000E+00 0.00000E+00
 -1   2000003 0.00000E+00 0.00000E+00 0.00000E+00
 -1   2000004 9.92919E-03 1.11733E-02 5.17849E-04
 -1   2000005 9.92919E-03 1.11733E-02-5.17849E-04
 -1   2000006 0.00000E+00 0.00000E+00 0.00000E+00
 -1   2000007 0.00000E+00 0.00000E+00 0.00000E+00
 -1   2000008 1.59334E-02 1.67370E-02 1.35986E-02
 -1   2000009 0.00000E+00 0.00000E+00 0.00000E+00
 -1   2000010 1.40328E-02 1.23897E-02-5.66495E-03
 -1   2000011 0.00000E+00 0.00000E+00 0.00000E+00
 -1   2000012 1.14807E-02 1.51438E-02-6.11348E-03
 -1   2000013 0.00000E+00 0.00000E+00 0.00000E+00
 -1   2000014 0.00000E+00 0.00000E+00 0.00000E+00
 -1   2000015 1.14807E-02 1.51438E-02 6.11348E-03
 -1   2000016 1.40328E-02 1.23897E-02 5.66495E-03
 -1   2000017 0.00000E+00 0.00000E+00 0.00000E+00
 -1   2000018 1.27981E-02 1.38115E-02-3.46945E-18
 -3
    1PSTEP                         2           1           1          
    1PGM                1.000000E+00                                  
    1PGK                9.466328E+07                                  
    1PHID                         -1                                  
    1PSUBC                         0                                  
    1PMODE                         1                                  
  100CL  101 1548.498879          36                     2    1MODAL      1
 -4  STRESS      6    1
 -5  SXX         1    4    1    1
 -5  SYY         1    4    2    2
 -5  SZZ         1    4    3    3
 -5  SXY         1    4    1    2
 -5  SYZ         1    4    2    3
 -5  SZX         1    4    3    1
 -1   1000001-2.75847E+08-2.41794E+08 5.55601E+09-5.64376E+08 1.42201E+09 1.36465E+09
 -1   1000002 3.29501E+09 3.29501E+09 7.68831E+09-7.56866E+02 2.70359E+09 2.57378E+09
 -1   1000003 4.56966E+08-4.37254E+08-2.11578E+08-2.14920E+07 8.06101E+08 6.99982E+08
 -1   1000004-1.25476E+08-1.25479E+08-2.92778E+08-2.88222E+01 1.80485E+09 1.60389E+09
 -1   1000005-4.56966E+08 4.37254E+08 2.11578E+08 2.14920E+07 8.06101E+08 6.99982E+08
 -1   1000006 1.25476E+08 1.25479E+08 2.92778E+08 2.88222E+01 1.80485E+09 1.60389E+09
 -1   1000007 2.75847E+08 2.41794E+08-5.55601E+09 5.64376E+08 1.42201E+09 1.36465E+09
 -1   1000008-3.29501E+09-3.29501E+09-7.68831E+09 7.56866E+02 2.70359E+09 2.57378E+09
 -1   1000009 5.58325E+05-4.99310E+08 2.22960E+09-2.55279E+08 8.61170E+08 1.35166E+09
 -1   1000010 1.37265E+09 1.37264E+09 3.20281E+09-2.59288E+02 2.00134E+09 2.26676E+09
 -1   1000011-5.58325E+05 4.99310E+08-2.22960E+09 2.55279E+08 8.61170E+08 1.35166E+09
 -1   1000012-1.37265E+09-1.37264E+09-3.20281E+09 2.59288E+02 2.00134E+09 2.26676E+09
 -1   1000013 1.48133E+09 1.48133E+09 3.45640E+09-2.40265E+02 2.44624E+09 1.85451E+09
 -1   1000014-5.38844E+08 6.02532E+05 2.40613E+09-2.36550E+08 1.45868E+09 7.97988E+08
 -1   1000015-1.48133E+09-1.48133E+09-3.45640E+09 2.40265E+02 2.44624E+09 1.85451E+09
 -1   1000016 5.38844E+08-6.02532E+05-2.40613E+09 2.36550E+08 1.45868E+09 7.97988E+08
 -1   1000017-8.49366E-07-8.94070E-07-1.72853E-06-4.79631E-08 2.23101E+09 2.06733E+09
 -1   1000018-2.17557E-06-5.78165E-06-3.57628E-06 9.98378E-07 1.24346E+09 1.15223E+09
 -1   2000001-2.75847E+08-2.41794E+08 5.55601E+09-5.64376E+08-1.42201E+09-1.36465E+09
 -1   2000002 3.29501E+09 3.29501E+09 7.68831E+09-7.56866E+02-2.70359E+09-2.57378E+09
 -1   2000003-1.25476E+08-1.25479E+08-2.92778E+08-2.88222E+01-1.80485E+09-1.60389E+09
 -1   2000004 4.56966E+08-4.37254E+08-2.11578E+08-2.14920E+07-8.06101E+08-6.99982E+08
 -1   2000005-4.56966E+08 4.37254E+08 2.11578E+08 2.14920E+07-8.06101E+08-6.99982E+08
 -1   2000006 1.25476E+08 1.25479E+08 2.92778E+08 2.88222E+01-1.80485E+09-1.60389E+09
 -1   2000007-3.29501E+09-3.29501E+09-7.68831E+09 7.56866E+02-2.70359E+09-2.57378E+09
 -1   2000008 2.75847E+08 2.41794E+08-5.55601E+09 5.64376E+08-1.42201E+09-1.36465E+09
 -1   2000009 1.37265E+09 1.37264E+09 3.20281E+09-2.59288E+02-2.00134E+09-2.26676E+09
 -1   2000010 5.58325E+05-4.99310E+08 2.22960E+09-2.55279E+08-8.61170E+08-1.35166E+09
 -1   2000011 1.48133E+09 1.48133E+09 3.45640E+09-2.40265E+02-2.44624E+09-1.85451E+09
 -1   2000012-5.38844E+08 6.02532E+05 2.40613E+09-2.36550E+08-1.45868E+09-7.97988E+08
 -1   2000013-1.48133E+09-1.48133E+09-3.45640E+09 2.40265E+02-2.44624E+09-1.85451E+09
 -1   2000014-1.37265E+09-1.37264E+09-3.20281E+09 2.59288E+02-2.00134E+09-2.26676E+09
 -1   2000015 5.38844E+08-6.02532E+05-2.40613E+09 2.36550E+08-1.45868E+09-7.97988E+08
 -1   2000016-5.58325E+05 4.99310E+08-2.22960E+09 2.55279E+08-8.61170E+08-1.35166E+09
 -1   2000017 1.20769E-06 1.16578E-06 2.24262E-06 3.44589E-08-2.23101E+09-2.06733E+09
 -1   2000018-6.55651E-07-3.57628E-07 1.19209E-06 3.57628E-07-1.24346E+09-1.15223E+09
 -3
    1PSTEP                         3           1           1          
    1PGM                1.000000E+00                                  
    1PGK                9.466328E+07                                  
    1PHID                         -1                                  
    1PSUBC                         0                                  
    1PMODE                         1                                  
  100CL  101 1548.498879          36                     2    1MODAL      1
 -4  ERROR       1    1
 -5  STR(%)      1    1    0    0
 -1   1000001 5.16274E+01
 -1   1000002 5.16274E+01
 -1   1000003 5.29541E+01
 -1   1000004 5.29541E+01
 -1   1000005 5.29541E+01
 -1   1000006 5.29541E+01
 -1   1000007 5.16274E+01
 -1   1000008 5.16274E+01
 -1   1000009 5.29541E+01
 -1   1000010 5.29541E+01
 -1   1000011 5.29541E+01
 -1   1000012 5.29541E+01
 -1   1000013 5.29541E+01
 -1   1000014 5.29541E+01
 -1   1000015 5.29541E+01
 -1   1000016 5.29541E+01
 -1   1000017 5.29541E+01
 -1   1000018 5.29541E+01
 -1   2000001 5.16274E+01
 -1   2000002 5.16274E+01
 -1   2000003 5.29541E+01
 -1   2000004 5.29541E+01
 -1   2000005 5.29541E+01
 -1   2000006 5.29541E+01
 -1   2000007 5.16274E+01
 -1   2000008 5.16274E+01
 -1   2000009 5.29541E+01
 -1   2000010 5.29541E+01
 -1   2000011 5.29541E+01
 -1   2000012 5.29541E+01
 -1   2000013 5.29541E+01
 -1   2000014 5.29541E+01
 -1   2000015 5.29541E+01
 -1   2000016 5.29541E+01
 -1   2000017 5.29541E+01
 -1   2000018 5.29541E+01
 -3
    1PSTEP                         4           1           1          
    1PGM                1.000000E+00                                  
    1PGK                9.466328E+07                                  
    1PHID                         -1                                  
    1PSUBC                         0                                  
    1PMODE                         2                                  
  100CL  102 1548.498879          36                     2    2MODAL      1
 -4  DISP        4    1
 -5  D1          1    2    1    0
 -5  D2          1    2    2    0
 -5  D3          1    2    3    0
 -5  ALL         1    2    0    0    1ALL
 -1   1000001 1.11733E-02-9.92919E-03 5.17849E-04
 -1   1000002 0.00000E+00 0.00000E+00 0.00000E+00
 -1   1000003 1.67370E-02-1.59334E-02 1.35986E-02
 -1   1000004 0.00000E+00 0.00000E+00 0.00000E+00
 -1   1000005 1.67370E-02-1.59334E-02-1.35986E-02
 -1   1000006 0.00000E+00 0.00000E+00 0.00000E+00
 -1   1000007 1.11733E-02-9.92919E-03-5.17849E-04
 -1   1000008 0.00000E+00 0.00000E+00 0.00000E+00
 -1   1000009 1.51438E-02-1.14807E-02 6.11348E-03
 -1   1000010 0.00000E+00 0.00000E+00 0.00000E+00
 -1   1000011 1.51438E-02-1.14807E-02-6.11348E-03
 -1   1000012 0.00000E+00 0.00000E+00 0.00000E+00
 -1   1000013 0.00000E+00 0.00000E+00 0.00000E+00
 -1   1000014 1.23897E-02-1.40328E-02-5.66495E-03
 -1   1000015 0.00000E+00 0.00000E+00 0.00000E+00
 -1   1000016 1.23897E-02-1.40328E-02 5.66495E-03
 -1   1000017 0.00000E+00 0.00000E+00 0.00000E+00
 -1   1000018 1.38115E-02-1.27981E-02 0.00000E+00
 -1   2000001 1.11733E-02-9.92919E-03-5.17849E-04
 -1   2000002 0.00000E+00 0.00000E+00 0.00000E+00
 -1   2000003 0.00000E+00 0.00000E+00 0.00000E+00
 -1   2000004 1.67370E-02-1.59334E-02-1.35986E-02
 -1   2000005 1.67370E-02-1.59334E-02 1.35986E-02
 -1   2000006 0.00000E+00 0.00000E+00 0.00000E+00
 -1   2000007 0.00000E+00 0.00000E+00 0.00000E+00
 -1   2000008 1.11733E-02-9.92919E-03 5.17849E-04
 -1   2000009 0.00000E+00 0.00000E+00 0.00000E+00
 -1   2000010 1.51438E-02-1.14807E-02-6.11348E-03
 -1   2000011 0.00000E+00 0.00000E+00 0.00000E+00
 -1   2000012 1.23897E-02-1.40328E-02 5.66495E-03
 -1   2000013 0.00000E+00 0.00000E+00 0.00000E+00
 -1   2000014 0.00000E+00 0.00000E+00 0.00000E+00
 -1   2000015 1.23897E-02-1.40328E-02-5.66495E-03
 -1   2000016 1.51438E-02-1.14807E-02 6.11348E-03
 -1   2000017 0.00000E+00 0.00000E+00 0.00000E+00
 -1   2000018 1.38115E-02-1.27981E-02 0.00000E+00
 -3
    1PSTEP                         5           1           1          
    1PGM                1.000000E+00                                  
    1PGK                9.466328E+07                                  
    1PHID                         -1                                  
    1PSUBC                         0                                  
    1PMODE                         2                                  
  100CL  102 1548.498879          36                     2    2MODAL      1
 -4  STRESS      6    1
 -5  SXX         1    4    1    1
 -5  SYY         1    4    2    2
 -5  SZZ         1    4    3    3
 -5  SXY         1    4    1    2
 -5  SYZ         1    4    2    3
 -5  SZX         1    4    3    1
 -1   1000001 4.37254E+08-4.56966E+08 2.11578E+08-2.14920E+07-6.99982E+08 8.06101E+08
 -1   1000002 1.25479E+08 1.25476E+08 2.92778E+08-2.88222E+01-1.60389E+09 1.80485E+09
 -1   1000003-2.41794E+08-2.75847E+08 5.55601E+09 5.64376E+08-1.36465E+09 1.42201E+09
 -1   1000004 3.29501E+09 3.29501E+09 7.68831E+09 7.56866E+02-2.57378E+09 2.70359E+09
 -1   1000005 2.41794E+08 2.75847E+08-5.55601E+09-5.64376E+08-1.36465E+09 1.42201E+09
 -1   1000006-3.29501E+09-3.29501E+09-7.68831E+09-7.56866E+02-2.57378E+09 2.70359E+09
 -1   1000007-4.37254E+08 4.56966E+08-2.11578E+08 2.14920E+07-6.99982E+08 8.06101E+08
 -1   1000008-1.25479E+08-1.25476E+08-2.92778E+08 2.88222E+01-1.60389E+09 1.80485E+09
 -1   1000009 6.02532E+05-5.38844E+08 2.40613E+09 2.36550E+08-7.97988E+08 1.45868E+09
 -1   1000010 1.48133E+09 1.48133E+09 3.45640E+09 2.40265E+02-1.85451E+09 2.44624E+09
 -1   1000011-6.02532E+05 5.38844E+08-2.40613E+09-2.36550E+08-7.97988E+08 1.45868E+09
 -1   1000012-1.48133E+09-1.48133E+09-3.45640E+09-2.40265E+02-1.85451E+09 2.44624E+09
 -1   1000013-1.37264E+09-1.37265E+09-3.20281E+09-2.59288E+02-2.26676E+09 2.00134E+09
 -1   1000014 4.99310E+08-5.58325E+05-2.22960E+09-2.55279E+08-1.35166E+09 8.61170E+08
 -1   1000015 1.37264E+09 1.37265E+09 3.20281E+09 2.59288E+02-2.26676E+09 2.00134E+09
 -1   1000016-4.99310E+08 5.58325E+05 2.22960E+09 2.55279E+08-1.35166E+09 8.61170E+08
 -1   1000017-2.72878E-07-2.10246E-07-2.70084E-07 3.18832E-08-2.06733E+09 2.23101E+09
 -1   1000018-7.21216E-06 3.63588E-06-8.82894E-07-1.36718E-06-1.15223E+09 1.24346E+09
 -1   2000001 4.37254E+08-4.56966E+08 2.11578E+08-2.14920E+07 6.99982E+08-8.06101E+08
 -1   2000002 1.25479E+08 1.25476E+08 2.92778E+08-2.88222E+01 1.60389E+09-1.80485E+09
 -1   2000003 3.29501E+09 3.29501E+09 7.68831E+09 7.56866E+02 2.57378E+09-2.70359E+09
 -1   2000004-2.41794E+08-2.75847E+08 5.55601E+09 5.64376E+08 1.36465E+09-1.42201E+09
 -1   2000005 2.41794E+08 2.75847E+08-5.55601E+09-5.64376E+08 1.36465E+09-1.42201E+09
 -1   2000006-3.29501E+09-3.29501E+09-7.68831E+09-7.56866E+02 2.57378E+09-2.70359E+09
 -1   2000007-1.25479E+08-1.25476E+08-2.92778E+08 2.88222E+01 1.60389E+09-1.80485E+09
 -1   2000008-4.37254E+08 4.56966E+08-2.11578E+08 2.14920E+07 6.99982E+08-8.06101E+08
 -1   2000009 1.48133E+09 1.48133E+09 3.45640E+09 2.40265E+02 1.85451E+09-2.44624E+09
 -1   2000010 6.02532E+05-5.38844E+08 2.40613E+09 2.36550E+08 7.97988E+08-1.45868E+09
 -1   2000011-1.37264E+09-1.37265E+09-3.20281E+09-2.59288E+02 2.26676E+09-2.00134E+09
 -1   2000012 4.99310E+08-5.58325E+05-2.22960E+09-2.55279E+08 1.35166E+09-8.61170E+08
 -1   2000013 1.37264E+09 1.37265E+09 3.20281E+09 2.59288E+02 2.26676E+09-2.00134E+09
 -1   2000014-1.48133E+09-1.48133E+09-3.45640E+09-2.40265E+02 1.85451E+09-2.44624E+09
 -1   2000015-4.99310E+08 5.58325E+05 2.22960E+09 2.55279E+08 1.35166E+09-8.61170E+08
 -1   2000016-6.02532E+05 5.38844E+08-2.40613E+09-2.36550E+08 7.97988E+08-1.45868E+09
 -1   2000017 2.95229E-07 1.90921E-08 1.75554E-07-9.91568E-08 2.06733E+09-2.23101E+09
 -1   2000018-2.44379E-06 7.55489E-06 1.53948E-06 9.60194E-07 1.15223E+09-1.24346E+09
 -3
    1PSTEP                         6           1           1          
    1PGM                1.000000E+00                                  
    1PGK                9.466328E+07                                  
    1PHID                         -1                                  
    1PSUBC                         0                                  
    1PMODE                         2                                  
  100CL  102 1548.498879          36                     2    2MODAL      1
 -4  ERROR       1    1
 -5  STR(%)      1    1    0    0
 -1   1000001 5.29541E+01
 -1   1000002 5.29541E+01
 -1   1000003 5.16274E+01
 -1   1000004 5.16274E+01
 -1   1000005 5.16274E+01
 -1   1000006 5.16274E+01
 -1   1000007 5.29541E+01
 -1   1000008 5.29541E+01
 -1   1000009 5.29541E+01
 -1   1000010 5.29541E+01
 -1   1000011 5.29541E+01
 -1   1000012 5.29541E+01
 -1   1000013 5.29541E+01
 -1   1000014 5.29541E+01
 -1   1000015 5.29541E+01
 -1   1000016 5.29541E+01
 -1   1000017 5.29541E+01
 -1   1000018 5.29541E+01
 -1   2000001 5.29541E+01
 -1   2000002 5.29541E+01
 -1   2000003 5.16274E+01
 -1   2000004 5.16274E+01
 -1   2000005 5.16274E+01
 -1   2000006 5.16274E+01
 -1   2000007 5.29541E+01
 -1   2000008 5.29541E+01
 -1   2000009 5.29541E+01
 -1   2000010 5.29541E+01
 -1   2000011 5.29541E+01
 -1   2000012 5.29541E+01
 -1   2000013 5.29541E+01
 -1   2000014 5.29541E+01
 -1   2000015 5.29541E+01
 -1   2000016 5.29541E+01
 -1   2000017 5.29541E+01
 -1   2000018 5.29541E+01
 -3
    1PSTEP                         7           1           1          
    1PGM                1.000000E+00                                  
    1PGK                1.242604E+08                                  
    1PHID                         -1                                  
    1PSUBC                         0                                  
    1PMODE                         3                                  
  100CL  103 1774.134032          36                     2    3MODAL      1
 -4  DISP        4    1
 -5  D1          1    2    1    0
 -5  D2          1    2    2    0
 -5  D3          1    2    3    0
 -5  ALL         1    2    0    0    1ALL
 -1   1000001 3.15288E-02-3.15288E-02-1.38778E-17
 -1   1000002 0.00000E+00 0.00000E+00 0.00000E+00
 -1   1000003-3.15288E-02-3.15288E-02 1.21431E-17
 -1   1000004 0.00000E+00 0.00000E+00 0.00000E+00
 -1   1000005 3.15288E-02 3.15288E-02-1.56125E-17
 -1   1000006 0.00000E+00 0.00000E+00 0.00000E+00
 -1   1000007-3.15288E-02 3.15288E-02 1.56125E-17
 -1   1000008 0.00000E+00 0.00000E+00 0.00000E+00
 -1   1000009-5.03070E-17-3.15288E-02 5.03070E-17
 -1   1000010 0.00000E+00 0.00000E+00 0.00000E+00
 -1   1000011 6.53774E-17 3.15288E-02 3.46945E-18
 -1   1000012 0.00000E+00 0.00000E+00 0.00000E+00
 -1   1000013 0.00000E+00 0.00000E+00 0.00000E+00
 -1   1000014 3.15288E-02-3.46945E-18 2.42861E-17
 -1   1000015 0.00000E+00 0.00000E+00 0.00000E+00
 -1   1000016-3.15288E-02 8.67362E-18-2.60209E-18
 -1   1000017 0.00000E+00 0.00000E+00 0.00000E+00
 -1   1000018 3.59955E-17-1.97325E-17-1.73472E-17
 -1   2000001 1.26404E-02-1.26404E-02-3.12250E-17
 -1   2000002 0.00000E+00 0.00000E+00 0.00000E+00
 -1   2000003 0.00000E+00 0.00000E+00 0.00000E+00
 -1   2000004-1.26404E-02-1.26404E-02-6.20164E-17
 -1   2000005 1.26404E-02 1.26404E-02 3.46945E-18
 -1   2000006 0.00000E+00 0.00000E+00 0.00000E+00
 -1   2000007 0.00000E+00 0.00000E+00 0.00000E+00
 -1   2000008-1.26404E-02 1.26404E-02 3.46945E-18
 -1   2000009 0.00000E+00 0.00000E+00 0.00000E+00
 -1   2000010-3.46945E-18-1.26404E-02-3.90313E-18
 -1   2000011 0.00000E+00 0.00000E+00 0.00000E+00
 -1   2000012 1.26404E-02-1.64799E-17 4.16334E-17
 -1   2000013 0.00000E+00 0.00000E+00 0.00000E+00
 -1   2000014 0.00000E+00 0.00000E+00 0.00000E+00
 -1   2000015-1.26404E-02-2.99240E-17-1.47451E-17
 -1   2000016 2.60209E-17 1.26404E-02-1.30104E-18
 -1   2000017 0.00000E+00 0.00000E+00 0.00000E+00
 -1   2000018 3.59955E-17-1.97325E-17-1.73472E-17
 -3
    1PSTEP                         8           1           1          
    1PGM                1.000000E+00                                  
    1PGK                1.242604E+08                                  
    1PHID                         -1                                  
    1PSUBC                         0                                  
    1PMODE                         3                                  
  100CL  103 1774.134032          36                     2    3MODAL      1
 -4  STRESS      6    1
 -5  SXX         1    4    1    1
 -5  SYY         1    4    2    2
 -5  SZZ         1    4    3    3
 -5  SXY         1    4    1    2
 -5  SYZ         1    4    2    3
 -5  SZX         1    4    3    1
 -1   1000001-6.53343E-05-6.59501E-05-4.52140E-05-2.57333E-05-5.09300E+09 5.09300E+09
 -1   1000002-1.71136E-06-2.70471E-06-7.15353E-06-9.47607E-08-5.09300E+09 5.09300E+09
 -1   1000003-1.61807E-05 7.77883E-06 2.57937E-06 9.29273E-06-5.09300E+09-5.09300E+09
 -1   1000004 2.22511E-06 2.28442E-06 6.45280E-06 7.40975E-07-5.09300E+09-5.09300E+09
 -1   1000005 1.79515E-05-4.14609E-05-1.36100E-05 1.93165E-05 5.09300E+09 5.09300E+09
 -1   1000006-3.53307E-06-3.46481E-06-8.65651E-06 3.44620E-08 5.09300E+09 5.09300E+09
 -1   1000007-6.30406E-06 4.49855E-05 1.81616E-05-8.72345E-06 5.09300E+09-5.09300E+09
 -1   1000008 4.47155E-06 3.79565E-06 9.03738E-06-2.38365E-07 5.09300E+09-5.09300E+09
 -1   1000009 5.63970E-05 1.96376E-05 4.39390E-05-4.77954E-06-5.09300E+09-1.88202E-05
 -1   1000010 1.16551E-05 1.17604E-05 2.81532E-05 4.21825E-07-5.09300E+09-8.10623E-06
 -1   1000011 1.90004E-05 7.88978E-06 9.52419E-06-8.26825E-06 5.09300E+09 1.42455E-05
 -1   1000012 1.29575E-07 5.00217E-07 1.64608E-06-5.94076E-09 5.09300E+09 1.07288E-05
 -1   1000013 6.88661E-06 6.49256E-06 1.42137E-05 9.70838E-08-6.55651E-07 5.09300E+09
 -1   1000014 3.62900E-06-2.56794E-06 1.05183E-05 1.27581E-05-6.83963E-06 5.09300E+09
 -1   1000015-3.50681E-07-2.66726E-07-1.27819E-06-4.64842E-07 1.19209E-06-5.09300E+09
 -1   1000016-2.38734E-05 2.23398E-06-7.58480E-06-2.21037E-06 3.39746E-06-5.09300E+09
 -1   1000017-4.65337E-06-4.18502E-06-9.93734E-06-9.68190E-08-3.24845E-06 5.75185E-06
 -1   1000018 3.15928E-05 1.38078E-05 6.33434E-06 7.47611E-07-5.37187E-06 1.62423E-06
 -1   2000001 8.42482E-06 1.95455E-05 2.15054E-05-4.66167E-06 2.04187E+09-2.04187E+09
 -1   2000002 7.54921E-06 7.33533E-06 1.75797E-05 2.54606E-07 2.04187E+09-2.04187E+09
 -1   2000003 1.55886E-05 1.51195E-05 3.52587E-05 1.98287E-08 2.04187E+09 2.04187E+09
 -1   2000004 1.02423E-05-3.33763E-05 1.91061E-05 4.40715E-06 2.04187E+09 2.04187E+09
 -1   2000005 3.91391E-05 3.62819E-05 2.11692E-05-1.17568E-05-2.04187E+09-2.04187E+09
 -1   2000006-1.57511E-06-1.58984E-06-2.40659E-06 9.61647E-08-2.04187E+09-2.04187E+09
 -1   2000007-4.01051E-07-2.77091E-07-1.66071E-06-3.94186E-07-2.04187E+09 2.04187E+09
 -1   2000008 2.96839E-05 1.33484E-05 1.14524E-05 8.78170E-06-2.04187E+09 2.04187E+09
 -1   2000009 7.92827E-07 6.94462E-07 2.08535E-06-1.81566E-07 2.04187E+09 8.86619E-07
 -1   2000010 1.42631E-05-1.07174E-05 2.70288E-06-9.27300E-06 2.04187E+09-1.34110E-06
 -1   2000011-1.02319E-05-1.00372E-05-2.35666E-05 9.38626E-08 2.66731E-06-2.04187E+09
 -1   2000012 1.10559E-06-7.06364E-06-1.92732E-05 3.15751E-07-6.97374E-06-2.04187E+09
 -1   2000013 4.41499E-06 3.88890E-06 8.68389E-06 7.37551E-08 4.85778E-06 2.04187E+09
 -1   2000014 4.98361E-07 3.64119E-07 8.05192E-07 1.31124E-07-2.04187E+09-4.35114E-06
 -1   2000015 2.43767E-05 7.99698E-06 1.59048E-05 4.52860E-07 5.48363E-06 2.04187E+09
 -1   2000016-5.13255E-07 1.05079E-05 3.54485E-06-5.42361E-08-2.04187E+09-1.78814E-06
 -1   2000017 4.23577E-06 4.25100E-06 9.83169E-06-9.45162E-08 3.09572E-06-5.78538E-06
 -1   2000018 1.08066E-05 3.90095E-06 1.16979E-05-2.62988E-06-1.37091E-06-5.75185E-06
 -3
    1PSTEP                         9           1           1          
    1PGM                1.000000E+00                                  
    1PGK                1.242604E+08                                  
    1PHID                         -1                                  
    1PSUBC                         0                                  
    1PMODE                         3                                  
  100CL  103 1774.134032          36                     2    3MODAL      1
 -4  ERROR       1    1
 -5  STR(%)      1    1    0    0
 -1   1000001 5.40655E+01
 -1   1000002 5.40655E+01
 -1   1000003 5.40655E+01
 -1   1000004 5.40655E+01
 -1   1000005 5.40655E+01
 -1   1000006 5.40655E+01
 -1   1000007 5.40655E+01
 -1   1000008 5.40655E+01
 -1   1000009 5.40655E+01
 -1   1000010 5.40655E+01
 -1   1000011 5.40655E+01
 -1   1000012 5.40655E+01
 -1   1000013 5.40655E+01
 -1   1000014 5.40655E+01
 -1   1000015 5.40655E+01
 -1   1000016 5.40655E+01
 -1   1000017 5.40655E+01
 -1   1000018 5.40655E+01
 -1   2000001 5.40655E+01
 -1   2000002 5.40655E+01
 -1   2000003 5.40655E+01
 -1   2000004 5.40655E+01
 -1   2000005 5.40655E+01
 -1   2000006 5.40655E+01
 -1   2000007 5.40655E+01
 -1   2000008 5.40655E+01
 -1   2000009 5.40655E+01
 -1   2000010 5.40655E+01
 -1   2000011 5.40655E+01
 -1   2000012 5.40655E+01
 -1   2000013 5.40655E+01
 -1   2000014 5.40655E+01
 -1   2000015 5.40655E+01
 -1   2000016 5.40655E+01
 -1   2000017 5.40655E+01
 -1   2000018 5.40655E+01
 -3
    1PSTEP                        10           1           1          
    1PGM                1.000000E+00                                  
    1PGK                1.242604E+08                                  
    1PHID                         -1                                  
    1PSUBC                         0                                  
    1PMODE                         4                                  
  100CL  104 1774.134032          36                     2    4MODAL      1
 -4  DISP        4    1
 -5  D1          1    2    1    0
 -5  D2          1    2    2    0
 -5  D3          1    2    3    0
 -5  ALL         1    2    0    0    1ALL
 -1   1000001 1.26404E-02-1.26404E-02-2.08167E-17
 -1   1000002 0.00000E+00 0.00000E+00 0.00000E+00
 -1   1000003-1.26404E-02-1.26404E-02-2.77556E-17
 -1   1000004 0.00000E+00 0.00000E+00 0.00000E+00
 -1   1000005 1.26404E-02 1.26404E-02 2.42861E-17
 -1   1000006 0.00000E+00 0.00000E+00 0.00000E+00
 -1   1000007-1.26404E-02 1.26404E-02 8.67362E-18
 -1   1000008 0.00000E+00 0.00000E+00 0.00000E+00
 -1   1000009-2.77556E-17-1.26404E-02-2.60209E-17
 -1   1000010 0.00000E+00 0.00000E+00 0.00000E+00
 -1   1000011-3.65376E-17 1.26404E-02 1.82146E-17
 -1   1000012 0.00000E+00 0.00000E+00 0.00000E+00
 -1   1000013 0.00000E+00 0.00000E+00 0.00000E+00
 -1   1000014 1.26404E-02 2.25514E-17-3.46945E-18
 -1   1000015 0.00000E+00 0.00000E+00 0.00000E+00
 -1   1000016-1.26404E-02 3.12250E-17-1.21431E-17
 -1   1000017 0.00000E+00 0.00000E+00 0.00000E+00
 -1   1000018-1.38778E-17 7.80626E-18-3.46945E-18
 -1   2000001-3.15288E-02 3.15288E-02 0.00000E+00
 -1   2000002 0.00000E+00 0.00000E+00 0.00000E+00
 -1   2000003 0.00000E+00 0.00000E+00 0.00000E+00
 -1   2000004 3.15288E-02 3.15288E-02-1.73472E-17
 -1   2000005-3.15288E-02-3.15288E-02 6.93889E-18
 -1   2000006 0.00000E+00 0.00000E+00 0.00000E+00
 -1   2000007 0.00000E+00 0.00000E+00 0.00000E+00
 -1   2000008 3.15288E-02-3.15288E-02 0.00000E+00
 -1   2000009 0.00000E+00 0.00000E+00 0.00000E+00
 -1   2000010 2.77556E-17 3.15288E-02-3.46945E-18
 -1   2000011 0.00000E+00 0.00000E+00 0.00000E+00
 -1   2000012-3.15288E-02-1.51788E-17 1.04083E-17
 -1   2000013 0.00000E+00 0.00000E+00 0.00000E+00
 -1   2000014 0.00000E+00 0.00000E+00 0.00000E+00
 -1   2000015 3.15288E-02-6.93889E-18 0.00000E+00
 -1   2000016 1.90820E-17-3.15288E-02 1.38778E-17
 -1   2000017 0.00000E+00 0.00000E+00 0.00000E+00
 -1   2000018-1.38778E-17 7.80626E-18-3.46945E-18
 -3
    1PSTEP                        11           1           1          
    1PGM                1.000000E+00                                  
    1PGK                1.242604E+08                                  
    1PHID                         -1                                  
    1PSUBC                         0                                  
    1PMODE                         4                                  