    1C
    1UModel: Box1                                                       
    1UUSER                                                              
    1UDATE              29.october.2025                                 
    1UTIME              14:50:18                                        
    1UHOST                                                              
    1UPGM               CalculiX                                        
    1UVERSION           Version 2.21                             
    1UCOMPILETIME       Sat Jul 29 10:52:01 CEST 2023                    
    1UDIR                                                               
    1UDBN                                                               
    1UMAT    1MAT1                                                      
    2C                            18                                     1
 -1   1000001 0.00000E+00 0.00000E+00 5.00000E-01
 -1   1000002 0.00000E+00 0.00000E+00 0.00000E+00
 -1   1000003 0.00000E+00 1.00000E+00 5.00000E-01
 -1   1000004 0.00000E+00 1.00000E+00 0.00000E+00
 -1   1000005 1.00000E+00 0.00000E+00 5.00000E-01
 -1   1000006 1.00000E+00 0.00000E+00 0.00000E+00
 -1   1000007 1.00000E+00 1.00000E+00 5.00000E-01
 -1   1000008 1.00000E+00 1.00000E+00 0.00000E+00
 -1   1000009 0.00000E+00 5.00000E-01 5.00000E-01
 -1   1000010 0.00000E+00 5.00000E-01 0.00000E+00
 -1   1000011 1.00000E+00 5.00000E-01 5.00000E-01
 -1   1000012 1.00000E+00 5.00000E-01 0.00000E+00
 -1   1000013 5.00000E-01 0.00000E+00 0.00000E+00
 -1   1000014 5.00000E-01 0.00000E+00 5.00000E-01
 -1   1000015 5.00000E-01 1.00000E+00 0.00000E+00
 -1   1000016 5.00000E-01 1.00000E+00 5.00000E-01
 -1   1000017 5.00000E-01 5.00000E-01 0.00000E+00
 -1   1000018 5.00000E-01 5.00000E-01 5.00000E-01
 -3
    3C                             4                                     1
 -1   1000037    1    0    1
 -2   1000001   1000002   1000010   1000009   1000014   1000013   1000017   1000018
 -1   1000038    1    0    1
 -2   1000014   1000013   1000017   1000018   1000005   1000006   1000012   1000011
 -1   1000039    1    0    1
 -2   1000009   1000010   1000004   1000003   1000018   1000017   1000015   1000016
 -1   1000040    1    0    1
 -2   1000018   1000017   1000015   1000016   1000011   1000012   1000008   1000007
 -3
    1PSTEP                         1           1           1          
    1PGM                1.000000E+00                                  
    1PGK                9.466328E+07                                  
    1PHID                         -1                                  
    1PSUBC                         0                                  
    1PMODE                         1                                  
  100CL  101 1548.498879          18                     2    1MODAL      1
 -4  DISP        4    1
 -5  D1          1    2    1    0
 -5  D2          1    2    2    0
 -5  D3          1    2    3    0
 -5  ALL         1    2    0    0    1ALL
 -1   1000001 1.10372E-03 2.55205E-02 1.10820E-02
 -1   1000002 0.00000E+00 0.00000E+00 0.00000E+00
 -1   1000003-1.03022E-02 2.74993E-02-1.57344E-02
 -1   1000004 0.00000E+00 0.00000E+00 0.00000E+00
 -1   1000005-1.03022E-02 2.74993E-02 1.57344E-02
 -1   1000006 0.00000E+00 0.00000E+00 0.00000E+00
 -1   1000007 1.10372E-03 2.55205E-02-1.10820E-02
 -1   1000008 0.00000E+00 0.00000E+00 0.00000E+00
 -1   1000009-4.99098E-03 2.35361E-02-2.01483E-03
 -1   1000010 0.00000E+00 0.00000E+00 0.00000E+00
 -1   1000011-4.99098E-03 2.35361E-02 2.01483E-03
 -1   1000012 0.00000E+00 0.00000E+00 0.00000E+00
 -1   1000013 0.00000E+00 0.00000E+00 0.00000E+00
 -1   1000014-4.08329E-03 2.87680E-02 1.16135E-02
 -1   1000015 0.00000E+00 0.00000E+00 0.00000E+00
 -1   1000016-4.08329E-03 2.87680E-02-1.16135E-02
 -1   1000017 0.00000E+00 0.00000E+00 0.00000E+00
 -1   1000018-4.55187E-03 2.62370E-02-3.30682E-18
 -3
    1PSTEP                         2           1           1          
    1PGM                1.000000E+00                                  
    1PGK                9.466328E+07                                  
    1PHID                         -1                                  
    1PSUBC                         0                                  
    1PMODE                         1                                  
  100CL  101 1548.498879          18                     2    1MODAL      1
 -4  STRESS      6    1
 -5  SXX         1    4    1    1
 -5  SYY         1    4    2    2
 -5  SZZ         1    4    3    3
 -5  SXY         1    4    1    2
 -5  SYZ         1    4    2    3
 -5  SZX         1    4    3    1
 -1   1000001-7.28254E+08 3.06410E+08 4.52778E+09-4.59930E+08 2.00679E+09 2.64161E+08
 -1   1000002 2.68522E+09 2.68522E+09 6.26547E+09-6.16797E+02 4.12241E+09 1.78304E+08
 -1   1000003 6.63836E+08-6.48949E+07-6.42862E+09-6.53015E+08 2.22584E+09-9.98482E+08
 -1   1000004-3.81252E+09-3.81252E+09-8.89581E+09-8.75737E+02 4.44206E+09-1.66416E+09
 -1   1000005-6.63836E+08 6.48949E+07 6.42862E+09 6.53015E+08 2.22584E+09-9.98482E+08
 -1   1000006 3.81252E+09 3.81252E+09 8.89581E+09 8.75737E+02 4.44206E+09-1.66416E+09
 -1   1000007 7.28254E+08-3.06410E+08-4.52778E+09 4.59930E+08 2.00679E+09 2.64161E+08
 -1   1000008-2.68522E+09-2.68522E+09-6.26547E+09 6.16797E+02 4.12241E+09 1.78304E+08
 -1   1000009-1.98578E+05 1.77588E+08-7.92992E+08-4.84941E+08 1.63592E+09-4.80741E+08
 -1   1000010-4.88204E+08-4.88203E+08-1.13913E+09-4.92558E+02 3.80185E+09-8.06212E+08
 -1   1000011 1.98578E+05-1.77588E+08 7.92992E+08 4.84941E+08 1.63592E+09-4.80741E+08
 -1   1000012 4.88204E+08 4.88203E+08 1.13913E+09 4.92558E+02 3.80185E+09-8.06212E+08
 -1   1000013 2.81400E+09 2.81401E+09 6.56595E+09 8.54542E+01 4.64700E+09-6.59585E+08
 -1   1000014-1.02362E+09 1.14460E+06 4.57081E+09 8.41328E+07 2.77099E+09-2.83818E+08
 -1   1000015-2.81400E+09-2.81401E+09-6.56595E+09-8.54542E+01 4.64700E+09-6.59585E+08
 -1   1000016 1.02362E+09-1.14460E+06-4.57081E+09-8.41328E+07 2.77099E+09-2.83818E+08
 -1   1000017-1.22190E-06-1.47521E-06-2.14577E-06-6.89179E-08 4.23815E+09-7.35279E+08
 -1   1000018 7.94232E-06 2.38419E-06 1.93715E-06-1.44541E-06 2.36213E+09-4.09808E+08
 -3
    1PSTEP                         3           1           1          
    1PGM                1.000000E+00                                  
    1PGK                9.466328E+07                                  
    1PHID                         -1                                  
    1PSUBC                         0                                  
    1PMODE                         1                                  
  100CL  101 1548.498879          18                     2    1MODAL      1
 -4  ERROR       1    1
 -5  STR(%)      1    1    0    0
 -1   1000001 5.31699E+01
 -1   1000002 5.31699E+01
 -1   1000003 4.91440E+01
 -1   1000004 4.91440E+01
 -1   1000005 4.91440E+01
 -1   1000006 4.91440E+01
 -1   1000007 5.31699E+01
 -1   1000008 5.31699E+01
 -1   1000009 5.31699E+01
 -1   1000010 5.31699E+01
 -1   1000011 5.31699E+01
 -1   1000012 5.31699E+01
 -1   1000013 5.31699E+01
 -1   1000014 5.31699E+01
 -1   1000015 5.31699E+01
 -1   1000016 5.31699E+01
 -1   1000017 5.31699E+01
 -1   1000018 5.31699E+01
 -3
    1PSTEP                         4           1           1          
    1PGM                1.000000E+00                                  
    1PGK                9.466328E+07                                  
    1PHID                         -1                                  
    1PSUBC                         0                                  
    1PMODE                         2                                  
  100CL  102 1548.498879          18                     2    2MODAL      1
 -4  DISP        4    1
 -5  D1          1    2    1    0
 -5  D2          1    2    2    0
 -5  D3          1    2    3    0
 -5  ALL         1    2    0    0    1ALL
 -1   1000001 2.74993E-02 1.03022E-02 1.57344E-02
 -1   1000002 0.00000E+00 0.00000E+00 0.00000E+00
 -1   1000003 2.55205E-02-1.10372E-03 1.10820E-02
 -1   1000004 0.00000E+00 0.00000E+00 0.00000E+00
 -1   1000005 2.55205E-02-1.10372E-03-1.10820E-02
 -1   1000006 0.00000E+00 0.00000E+00 0.00000E+00
 -1   1000007 2.74993E-02 1.03022E-02-1.57344E-02
 -1   1000008 0.00000E+00 0.00000E+00 0.00000E+00
 -1   1000009 2.87680E-02 4.08329E-03 1.16135E-02
 -1   1000010 0.00000E+00 0.00000E+00 0.00000E+00
 -1   1000011 2.87680E-02 4.08329E-03-1.16135E-02
 -1   1000012 0.00000E+00 0.00000E+00 0.00000E+00
 -1   1000013 0.00000E+00 0.00000E+00 0.00000E+00
 -1   1000014 2.35361E-02 4.99098E-03 2.01483E-03
 -1   1000015 0.00000E+00 0.00000E+00 0.00000E+00
 -1   1000016 2.35361E-02 4.99098E-03-2.01483E-03
 -1   1000017 0.00000E+00 0.00000E+00 0.00000E+00
 -1   1000018 2.62370E-02 4.55187E-03 4.33681E-19
 -3
    1PSTEP                         5           1           1          
    1PGM                1.000000E+00                                  
    1PGK                9.466328E+07                                  
    1PHID                         -1                                  
    1PSUBC                         0                                  
    1PMODE                         2                                  
  100CL  102 1548.498879          18                     2    2MODAL      1
 -4  STRESS      6    1
 -5  SXX         1    4    1    1
 -5  SYY         1    4    2    2
 -5  SZZ         1    4    3    3
 -5  SXY         1    4    1    2
 -5  SYZ         1    4    2    3
 -5  SZX         1    4    3    1
 -1   1000001 6.48949E+07-6.63836E+08 6.42862E+09-6.53015E+08 9.98482E+08 2.22584E+09
 -1   1000002 3.81252E+09 3.81252E+09 8.89581E+09-8.75737E+02 1.66416E+09 4.44206E+09
 -1   1000003 3.06410E+08-7.28254E+08 4.52778E+09 4.59930E+08-2.64161E+08 2.00679E+09
 -1   1000004 2.68522E+09 2.68522E+09 6.26547E+09 6.16797E+02-1.78304E+08 4.12241E+09
 -1   1000005-3.06410E+08 7.28254E+08-4.52778E+09-4.59930E+08-2.64161E+08 2.00679E+09
 -1   1000006-2.68522E+09-2.68522E+09-6.26547E+09-6.16797E+02-1.78304E+08 4.12241E+09
 -1   1000007-6.48949E+07 6.63836E+08-6.42862E+09 6.53015E+08 9.98482E+08 2.22584E+09
 -1   1000008-3.81252E+09-3.81252E+09-8.89581E+09 8.75737E+02 1.66416E+09 4.44206E+09
 -1   1000009 1.14460E+06-1.02362E+09 4.57081E+09-8.41328E+07 2.83818E+08 2.77099E+09
 -1   1000010 2.81401E+09 2.81400E+09 6.56595E+09-8.54542E+01 6.59585E+08 4.64700E+09
 -1   1000011-1.14460E+06 1.02362E+09-4.57081E+09 8.41328E+07 2.83818E+08 2.77099E+09
 -1   1000012-2.81401E+09-2.81400E+09-6.56595E+09 8.54542E+01 6.59585E+08 4.64700E+09
 -1   1000013 4.88203E+08 4.88204E+08 1.13913E+09-4.92558E+02 8.06212E+08 3.80185E+09
 -1   1000014-1.77588E+08 1.98578E+05 7.92992E+08-4.84941E+08 4.80741E+08 1.63592E+09
 -1   1000015-4.88203E+08-4.88204E+08-1.13913E+09 4.92558E+02 8.06212E+08 3.80185E+09
 -1   1000016 1.77588E+08-1.98578E+05-7.92992E+08 4.84941E+08 4.80741E+08 1.63592E+09
 -1   1000017-1.74157E-07 2.19792E-07-8.94070E-08-5.58794E-08 7.35279E+08 4.23815E+09
 -1   1000018 1.72853E-06-2.41399E-06 1.78814E-07 1.53482E-06 4.09808E+08 2.36213E+09
 -3
    1PSTEP                         6           1           1          
    1PGM                1.000000E+00                                  
    1PGK                9.466328E+07                                  
    1PHID                         -1                                  
    1PSUBC                         0                                  
    1PMODE                         2                                  
  100CL  102 1548.498879          18                     2    2MODAL      1
 -4  ERROR       1    1
 -5  STR(%)      1    1    0    0
 -1   1000001 4.91440E+01
 -1   1000002 4.91440E+01
 -1   1000003 5.31699E+01
 -1   1000004 5.31699E+01
 -1   1000005 5.31699E+01
 -1   1000006 5.31699E+01
 -1   1000007 4.91440E+01
 -1   1000008 4.91440E+01
 -1   1000009 5.31699E+01
 -1   1000010 5.31699E+01
 -1   1000011 5.31699E+01
 -1   1000012 5.31699E+01
 -1   1000013 5.31699E+01
 -1   1000014 5.31699E+01
 -1   1000015 5.31699E+01
 -1   1000016 5.31699E+01
 -1   1000017 5.31699E+01
 -1   1000018 5.31699E+01
 -3
    1PSTEP                         7           1           1          
    1PGM                1.000000E+00                                  
    1PGK                1.242604E+08                                  
    1PHID                         -1                                  
    1PSUBC                         0                                  
    1PMODE                         3                                  
  100CL  103 1774.134032          18                     2    3MODAL      1
 -4  DISP        4    1
 -5  D1          1    2    1    0
 -5  D2          1    2    2    0
 -5  D3          1    2    3    0
 -5  ALL         1    2    0    0    1ALL
 -1   1000001 3.39683E-02-3.39683E-02 3.46945E-18
 -1   1000002 0.00000E+00 0.00000E+00 0.00000E+00
 -1   1000003-3.39683E-02-3.39683E-02 8.67362E-19
 -1   1000004 0.00000E+00 0.00000E+00 0.00000E+00
 -1   1000005 3.39683E-02 3.39683E-02-8.67362E-18
 -1   1000006 0.00000E+00 0.00000E+00 0.00000E+00
 -1   1000007-3.39683E-02 3.39683E-02-6.93889E-18
 -1   1000008 0.00000E+00 0.00000E+00 0.00000E+00
 -1   1000009 1.30104E-17-3.39683E-02-1.73472E-18
 -1   1000010 0.00000E+00 0.00000E+00 0.00000E+00
 -1   1000011 2.08167E-17 3.39683E-02-1.64799E-17
 -1   1000012 0.00000E+00 0.00000E+00 0.00000E+00
 -1   1000013 0.00000E+00 0.00000E+00 0.00000E+00
 -1   1000014 3.39683E-02-1.73472E-18 6.93889E-18
 -1   1000015 0.00000E+00 0.00000E+00 0.00000E+00
 -1   1000016-3.39683E-02-1.30104E-17-3.46945E-18
 -1   1000017 0.00000E+00 0.00000E+00 0.00000E+00
 -1   1000018 1.56125E-17-3.46945E-18-3.46945E-18
 -3
    1PSTEP                         8           1           1          
    1PGM                1.000000E+00                                  
    1PGK                1.242604E+08                                  
    1PHID                         -1                                  
    1PSUBC                         0                                  
    1PMODE                         3                                  
  100CL  103 1774.134032          18                     2    3MODAL      1
 -4  STRESS      6    1
 -5  SXX         1    4    1    1
 -5  SYY         1    4    2    2
 -5  SZZ         1    4    3    3
 -5  SXY         1    4    1    2
 -5  SYZ         1    4    2    3
 -5  SZX         1    4    3    1
 -1   1000001 1.49163E-05 6.88649E-06 7.99798E-06 1.69005E-06-5.48706E+09 5.48706E+09
 -1   1000002 1.57594E-06 1.10575E-06 2.26165E-06 2.27610E-07-5.48706E+09 5.48706E+09
 -1   1000003 2.53488E-06-3.79549E-06-1.38655E-08-5.54168E-06-5.48706E+09-5.48706E+09
 -1   1000004 3.22234E-07 3.04734E-07 5.52406E-07-1.78907E-07-5.48706E+09-5.48706E+09
 -1   1000005-5.86936E-06-9.11869E-06-8.13923E-06 5.56733E-06 5.48706E+09 5.48706E+09
 -1   1000006-1.51703E-06-1.00398E-06-4.39912E-06-2.72070E-07 5.48706E+09 5.48706E+09
 -1   1000007-3.33647E-06-2.67073E-05-1.19273E-05-3.74407E-06 5.48706E+09-5.48706E+09
 -1   1000008-1.91764E-06-2.05771E-06-4.10682E-06 9.75630E-08 5.48706E+09-5.48706E+09
 -1   1000009 2.25889E-06-1.76638E-06-5.80822E-07-4.68729E-06-5.48706E+09 1.54972E-06
 -1   1000010-1.10414E-06-7.15145E-07-1.27436E-06 3.02721E-07-5.48706E+09 2.26498E-06
 -1   1000011-7.15976E-06-2.02097E-05-1.51323E-05 4.88215E-06 5.48706E+09 1.84774E-06
 -1   1000012-4.27419E-06-3.82759E-06-9.35194E-06-2.84335E-07 5.48706E+09 3.33786E-06
 -1   1000013 2.12804E-06 1.86515E-06 4.11230E-06-2.01058E-07-7.15256E-07 5.48706E+09
 -1   1000014 8.06695E-06 4.06957E-06 6.55530E-06 1.21497E-06-2.51830E-06 5.48706E+09
 -1   1000015-7.12471E-07-5.37505E-07-1.83208E-06-2.87735E-08-1.66893E-06-5.48706E+09
 -1   1000016 4.51825E-06-3.63350E-06-1.19166E-06-5.26147E-06-1.72853E-06-5.48706E+09
 -1   1000017-1.33455E-06-9.32036E-07-2.13709E-06 6.92729E-08-7.74860E-07 2.41399E-06
 -1   1000018 2.04353E-06-2.32357E-06-1.54112E-06-1.45720E-06-1.01328E-06 1.95205E-06
 -3
    1PSTEP                         9           1           1          
    1PGM                1.000000E+00                                  
    1PGK                1.242604E+08                                  
    1PHID                         -1                                  
    1PSUBC                         0                                  
    1PMODE                         3                                  
  100CL  103 1774.134032          18                     2    3MODAL      1
 -4  ERROR       1    1
 -5  STR(%)      1    1    0    0
 -1   1000001 5.40655E+01
 -1   1000002 5.40655E+01
 -1   1000003 5.40655E+01
 -1   1000004 5.40655E+01
 -1   1000005 5.40655E+01
 -1   1000006 5.40655E+01
 -1   1000007 5.40655E+01
 -1   1000008 5.40655E+01
 -1   1000009 5.40655E+01
 -1   1000010 5.40655E+01
 -1   1000011 5.40655E+01
 -1   1000012 5.40655E+01
 -1   1000013 5.40655E+01
 -1   1000014 5.40655E+01
 -1   1000015 5.40655E+01
 -1   1000016 5.40655E+01
 -1   1000017 5.40655E+01
 -1   1000018 5.40655E+01
 -3
    1PSTEP                        10           1           1          
    1PGM                1.000000E+00                                  
    1PGK                2.991856E+08                                  
    1PHID                         -1                                  
    1PSUBC                         0                                  
    1PMODE                         4                                  
  100CL  104 2752.900338          18                     2    4MODAL      1
 -4  DISP        4    1
 -5  D1          1    2    1    0
 -5  D2          1    2    2    0
 -5  D3          1    2    3    0
 -5  ALL         1    2    0    0    1ALL
 -1   1000001-3.49828E-02-3.49828E-02-3.61178E-02
 -1   1000002 0.00000E+00 0.00000E+00 0.00000E+00
 -1   1000003 3.49828E-02-3.49828E-02 3.61178E-02
 -1   1000004 0.00000E+00 0.00000E+00 0.00000E+00
 -1   1000005-3.49828E-02 3.49828E-02 3.61178E-02
 -1   1000006 0.00000E+00 0.00000E+00 0.00000E+00
 -1   1000007 3.49828E-02 3.49828E-02-3.61178E-02
 -1   1000008 0.00000E+00 0.00000E+00 0.00000E+00
 -1   1000009 6.80012E-16-2.59994E-02 7.66748E-16
 -1   1000010 0.00000E+00 0.00000E+00 0.00000E+00
 -1   1000011-6.77410E-16 2.59994E-02 7.14706E-16
 -1   1000012 0.00000E+00 0.00000E+00 0.00000E+00
 -1   1000013 0.00000E+00 0.00000E+00 0.00000E+00
 -1   1000014-2.59994E-02 1.36609E-16 4.16334E-16
 -1   1000015 0.00000E+00 0.00000E+00 0.00000E+00
 -1   1000016 2.59994E-02-1.21431E-16 4.51028E-16
 -1   1000017 0.00000E+00 0.00000E+00 0.00000E+00
 -1   1000018-3.46945E-17-6.93889E-18 3.48679E-16
 -3
    1PSTEP                        11           1           1          
    1PGM                1.000000E+00                                  
    1PGK                2.991856E+08                                  
    1PHID                         -1                                  
    1PSUBC                         0                                  
    1PMODE                         4                                  
  100CL  104 2752.900338          18                     2    4MODAL      1
 -4  STRESS      6    1
 -5  SXX         1    4    1    1
 -5  SYY         1    4    2    2
 -5  SZZ         1    4    3    3
 -5  SXY         1    4    1    2
 -5  SYZ         1    4    2    3
 -5  SZX         1    4    3    1
 -1   1000001-1.49577E+09-1.49577E+09-1.60667E+10 1.13019E+10 1.83373E+08 1.83373E+08
 -1   1000002-8.75152E+09-8.75152E+09-2.04201E+10-1.61138E+05-5.65098E+09-5.65098E+09
 -1   1000003 1.49577E+09 1.49577E+09 1.60667E+10 1.13019E+10 1.83373E+08-1.83373E+08
 -1   1000004 8.75152E+09 8.75152E+09 2.04201E+10-1.61138E+05-5.65098E+09 5.65098E+09
 -1   1000005 1.49577E+09 1.49577E+09 1.60667E+10 1.13019E+10-1.83373E+08 1.83373E+08
 -1   1000006 8.75152E+09 8.75152E+09 2.04201E+10-1.61138E+05 5.65098E+09-5.65098E+09
 -1   1000007-1.49577E+09-1.49577E+09-1.60667E+10 1.13019E+10-1.83373E+08-1.83373E+08
 -1   1000008-8.75152E+09-8.75152E+09-2.04201E+10-1.61138E+05 5.65098E+09 5.65098E+09
 -1   1000009-2.86579E-04-1.42574E-04 1.92404E-04 9.85073E+09 1.63452E+09 4.17233E-05
 -1   1000010 1.86041E-04 1.85560E-04 4.32998E-04-1.66285E+05-4.19983E+09 1.09673E-04
 -1   1000011-2.68936E-04-1.63078E-04 1.71423E-04 9.85073E+09-1.63452E+09-4.98891E-05
 -1   1000012 1.73807E-04 1.73450E-04 4.06265E-04-1.66285E+05 4.19983E+09-1.09434E-04
 -1   1000013 1.01246E-04 1.00810E-04 2.36362E-04-1.66285E+05 2.20537E-05-4.19983E+09
 -1   1000014-2.89917E-04-1.33038E-04 4.88758E-05 9.85073E+09 1.11088E-05 1.63452E+09
 -1   1000015 1.09315E-04 1.09434E-04 2.54631E-04-1.66285E+05-1.93119E-05 4.19983E+09
 -1   1000016-2.81334E-04-1.11103E-04 7.20024E-05 9.85073E+09-3.39746E-06-1.63452E+09
 -1   1000017 8.49664E-05 8.48472E-05 1.97291E-04-1.71432E+05-1.19209E-06-5.72205E-06
 -1   1000018-3.32020E-04-1.53782E-04 5.51343E-07 8.39958E+09 1.37836E-06-9.76771E-06
 -3
    1PSTEP                        12           1           1          
    1PGM                1.000000E+00                                  
    1PGK                2.991856E+08                                  
    1PHID                         -1                                  
    1PSUBC                         0                                  
    1PMODE                         4                                  
  100CL  104 2752.900338          18                     2    4MODAL      1
 -4  ERROR       1    1
 -5  STR(%)      1    1    0    0
 -1   1000001 6.47034E+01
 -1   1000002 6.47034E+01
 -1   1000003 6.47034E+01
 -1   1000004 6.47034E+01
 -1   1000005 6.47034E+01
 -1   1000006 6.47034E+01
 -1   1000007 6.47034E+01
 -1   1000008 6.47034E+01
 -1   1000009 6.47034E+01
 -1   1000010 6.47034E+01
 -1   1000011 6.47034E+01
 -1   1000012 6.47034E+01
 -1   1000013 6.47034E+01
 -1   1000014 6.47034E+01
 -1   1000015 6.47034E+01
 -1   1000016 6.47034E+01
 -1   1000017 6.47034E+01
 -1   1000018 6.47034E+01
 -3
    1PSTEP                        13           1           1          
    1PGM                1.000000E+00                                  
    1PGK                3.005311E+08                                  
    1PHID                         -1                                  
    1PSUBC                         0                                  
    1PMODE                         5                                  
  100CL  105 2759.083282          18                     2    5MODAL      1
 -4  DISP        4    1
 -5  D1          1    2    1    0
 -5  D2          1    2    2    0
 -5  D3          1    2    3    0
 -5  ALL         1    2    0    0    1ALL
 -1   1000001 1.83914E-02 1.83914E-02 3.45159E-02
 -1   1000002 0.00000E+00 0.00000E+00 0.00000E+00
 -1   1000003 1.83914E-02-1.83914E-02 3.45159E-02
 -1   1000004 0.00000E+00 0.00000E+00 0.00000E+00
 -1   1000005-1.83914E-02 1.83914E-02 3.45159E-02
 -1   1000006 0.00000E+00 0.00000E+00 0.00000E+00
 -1   1000007-1.83914E-02-1.83914E-02 3.45159E-02
 -1   1000008 0.00000E+00 0.00000E+00 0.00000E+00
 -1   1000009 1.56520E-02 6.38378E-16 2.31573E-02
 -1   1000010 0.00000E+00 0.00000E+00 0.00000E+00
 -1   1000011-1.56520E-02-6.93889E-16 2.31573E-02
 -1   1000012 0.00000E+00 0.00000E+00 0.00000E+00
 -1   1000013 0.00000E+00 0.00000E+00 0.00000E+00
 -1   1000014 6.07153E-16 1.56520E-02 2.31573E-02
 -1   1000015 0.00000E+00 0.00000E+00 0.00000E+00
 -1   1000016-6.86950E-16-1.56520E-02 2.31573E-02
 -1   1000017 0.00000E+00 0.00000E+00 0.00000E+00
 -1   1000018 6.93889E-18 0.00000E+00 1.36086E-02
 -3
    1PSTEP                        14           1           1          
    1PGM                1.000000E+00                                  
    1PGK                3.005311E+08                                  
    1PHID                         -1                                  
    1PSUBC                         0                                  
    1PMODE                         5                                  
  100CL  105 2759.083282          18                     2    5MODAL      1
 -4  STRESS      6    1
 -5  SXX         1    4    1    1
 -5  SYY         1    4    2    2
 -5  SZZ         1    4    3    3
 -5  SXY         1    4    1    2
 -5  SYZ         1    4    2    3
 -5  SZX         1    4    3    1
 -1   1000001-6.49106E+09-6.49106E+09 1.06016E+10-8.85039E+08 1.13604E+09 1.13604E+09
 -1   1000002 8.36344E+09 8.36344E+09 1.95143E+10 5.90036E+03 2.97088E+09 2.97088E+09
 -1   1000003-6.49106E+09-6.49106E+09 1.06016E+10 8.85039E+08-1.13604E+09 1.13604E+09
 -1   1000004 8.36344E+09 8.36344E+09 1.95143E+10-5.90036E+03-2.97088E+09 2.97088E+09
 -1   1000005-6.49106E+09-6.49106E+09 1.06016E+10 8.85039E+08 1.13604E+09-1.13604E+09
 -1   1000006 8.36344E+09 8.36344E+09 1.95143E+10-5.90036E+03 2.97088E+09-2.97088E+09
 -1   1000007-6.49106E+09-6.49106E+09 1.06016E+10-8.85039E+08-1.13604E+09-1.13604E+09
 -1   1000008 8.36344E+09 8.36344E+09 1.95143E+10 5.90036E+03-2.97088E+09-2.97088E+09
 -1   1000009-7.69449E+09-8.57953E+09 4.84345E+09-2.47270E-04-4.49419E-05 9.85888E+08
 -1   1000010 5.61119E+09 5.61118E+09 1.30924E+10 1.67638E-08 1.03220E-04 2.52836E+09
 -1   1000011-7.69449E+09-8.57953E+09 4.84345E+09-2.59280E-04 3.57628E-05-9.85888E+08
 -1   1000012 5.61119E+09 5.61118E+09 1.30924E+10-3.72529E-08-1.11818E-04-2.52836E+09
 -1   1000013 5.61118E+09 5.61119E+09 1.30924E+10 5.58794E-09 2.52836E+09 9.78410E-05
 -1   1000014-8.57953E+09-7.69449E+09 4.84345E+09-2.48551E-04 9.85888E+08-4.91142E-05
 -1   1000015 5.61118E+09 5.61119E+09 1.30924E+10-1.11759E-07-2.52836E+09-1.10984E-04
 -1   1000016-8.57953E+09-7.69449E+09 4.84345E+09-2.43664E-04-9.85888E+08 3.73125E-05
 -1   1000017 3.29748E+09 3.29748E+09 7.69371E+09-9.77889E-08-5.21541E-08 1.13249E-06
 -1   1000018-9.34441E+09-9.34441E+09 1.08574E+08-2.11935E-04 5.48363E-06-4.58956E-06
 -3
    1PSTEP                        15           1           1          
    1PGM                1.000000E+00                                  
    1PGK                3.005311E+08                                  
    1PHID                         -1                                  
    1PSUBC                         0                                  
    1PMODE                         5                                  
  100CL  105 2759.083282          18                     2    5MODAL      1
 -4  ERROR       1    1
 -5  STR(%)      1    1    0    0
 -1   1000001 5.55536E+01
 -1   1000002 5.55536E+01
 -1   1000003 5.55536E+01
 -1   1000004 5.55536E+01
 -1   1000005 5.55536E+01
 -1   1000006 5.55536E+01
 -1   1000007 5.55536E+01
 -1   1000008 5.55536E+01
 -1   1000009 5.55536E+01
 -1   1000010 5.55536E+01
 -1   1000011 5.55536E+01
 -1   1000012 5.55536E+01
 -1   1000013 5.55536E+01
 -1   1000014 5.55536E+01
 -1   1000015 5.55536E+01
 -1   1000016 5.55536E+01
 -1   1000017 5.55536E+01
 -1   1000018 5.55536E+01
 -3
    1PSTEP                        16           1           1          
    1PGM                1.000000E+00                                  
    1PGK                3.098802E+08                                  
    1PHID                         -1                                  
    1PSUBC                         0                                  
    1PMODE                         6                                  
  100CL  106 2801.670344          18                     2    6MODAL      1
 -4  DISP        4    1
 -5  D1          1    2    1    0
 -5  D2          1    2    2    0
 -5  D3          1    2    3    0
 -5  ALL         1    2    0    0    1ALL
 -1   1000001-2.38294E-02 2.38294E-02 2.53270E-16
 -1   1000002 0.00000E+00 0.00000E+00 0.00000E+00
 -1   1000003-2.38294E-02-2.38294E-02 7.84095E-16
 -1   1000004 0.00000E+00 0.00000E+00 0.00000E+00
 -1   1000005 2.38294E-02 2.38294E-02 6.73073E-16
 -1   1000006 0.00000E+00 0.00000E+00 0.00000E+00
 -1   1000007 2.38294E-02-2.38294E-02 2.49800E-16
 -1   1000008 0.00000E+00 0.00000E+00 0.00000E+00
 -1   1000009-3.99349E-02-1.31839E-16-2.15184E-02
 -1   1000010 0.00000E+00 0.00000E+00 0.00000E+00
 -1   1000011 3.99349E-02 1.63931E-16-2.15184E-02
 -1   1000012 0.00000E+00 0.00000E+00 0.00000E+00
 -1   1000013 0.00000E+00 0.00000E+00 0.00000E+00
 -1   1000014-2.25514E-16 3.99349E-02 2.15184E-02
 -1   1000015 0.00000E+00 0.00000E+00 0.00000E+00
 -1   1000016 1.56125E-16-3.99349E-02 2.15184E-02
 -1   1000017 0.00000E+00 0.00000E+00 0.00000E+00
 -1   1000018 5.55112E-17-1.73472E-18 1.79544E-16
 -3
    1PSTEP                        17           1           1          
    1PGM                1.000000E+00                                  
    1PGK                3.098802E+08                                  
    1PHID                         -1                                  
    1PSUBC                         0                                  
    1PMODE                         6                                  
  100CL  106 2801.670344          18                     2    6MODAL      1
 -4  STRESS      6    1
 -5  SXX         1    4    1    1
 -5  SYY         1    4    2    2
 -5  SZZ         1    4    3    3
 -5  SXY         1    4    1    2
 -5  SYZ         1    4    2    3
 -5  SZX         1    4    3    1
 -1   1000001 7.69851E+09-7.69851E+09 5.41741E-05 8.18508E-05 3.73283E+08-3.73283E+08
 -1   1000002-1.83099E+05 1.83099E+05 1.42665E-04-2.45814E-07 3.84931E+09-3.84931E+09
 -1   1000003 7.69851E+09-7.69851E+09 2.57969E-04 9.30056E-05-3.73283E+08-3.73283E+08
 -1   1000004-1.83099E+05 1.83099E+05 4.43459E-04-1.49012E-07-3.84931E+09-3.84931E+09
 -1   1000005 7.69851E+09-7.69851E+09 2.29120E-04 8.78498E-05 3.73283E+08 3.73283E+08
 -1   1000006-1.83099E+05 1.83099E+05 3.79562E-04-5.96046E-08 3.84931E+09 3.84931E+09
 -1   1000007 7.69851E+09-7.69851E+09 7.18607E-05 7.30687E-05-3.73283E+08 3.73283E+08
 -1   1000008-1.83099E+05 1.83099E+05 1.41977E-04-4.15864E-07-3.84931E+09 3.84931E+09
 -1   1000009 1.15902E+10-9.01010E+09-8.26365E+09 6.36578E-05 2.26498E-05-2.97492E+09
 -1   1000010-5.21419E+09-5.21385E+09-1.21661E+10-2.70117E-07-2.11000E-05-6.45095E+09