    1C
    1UModel: Box2                                                       
    1UUSER                                                              
    1UDATE              29.october.2025                                 
    1UTIME              14:51:12                                        
    1UHOST                                                              
    1UPGM               CalculiX                                        
    1UVERSION           Version 2.21                             
    1UCOMPILETIME       Sat Jul 29 10:52:01 CEST 2023                    
    1UDIR                                                               
    1UDBN                                                               
    1UMAT    1MAT1                                                      
    2C                            18                                     1
 -1   2000001 0.00000E+00 0.00000E+00 5.00000E-01
 -1   2000002 0.00000E+00 0.00000E+00 1.00000E+00
 -1   2000003 0.00000E+00 1.00000E+00 1.00000E+00
 -1   2000004 0.00000E+00 1.00000E+00 5.00000E-01
 -1   2000005 1.00000E+00 0.00000E+00 5.00000E-01
 -1   2000006 1.00000E+00 0.00000E+00 1.00000E+00
 -1   2000007 1.00000E+00 1.00000E+00 1.00000E+00
 -1   2000008 1.00000E+00 1.00000E+00 5.00000E-01
 -1   2000009 0.00000E+00 5.00000E-01 1.00000E+00
 -1   2000010 0.00000E+00 5.00000E-01 5.00000E-01
 -1   2000011 5.00000E-01 0.00000E+00 1.00000E+00
 -1   2000012 5.00000E-01 0.00000E+00 5.00000E-01
 -1   2000013 5.00000E-01 1.00000E+00 1.00000E+00
 -1   2000014 1.00000E+00 5.00000E-01 1.00000E+00
 -1   2000015 5.00000E-01 1.00000E+00 5.00000E-01
 -1   2000016 1.00000E+00 5.00000E-01 5.00000E-01
 -1   2000017 5.00000E-01 5.00000E-01 1.00000E+00
 -1   2000018 5.00000E-01 5.00000E-01 5.00000E-01
 -3
    3C                             4                                     1
 -1   2000037    1    0    1
 -2   2000002   2000001   2000010   2000009   2000011   2000012   2000018   2000017
 -1   2000038    1    0    1
 -2   2000011   2000012   2000018   2000017   2000006   2000005   2000016   2000014
 -1   2000039    1    0    1
 -2   2000009   2000010   2000004   2000003   2000017   2000018   2000015   2000013
 -1   2000040    1    0    1
 -2   2000017   2000018   2000015   2000013   2000014   2000016   2000008   2000007
 -3
    1PSTEP                         1           1           1          
    1PGM                1.000000E+00                                  
    1PGK                9.466328E+07                                  
    1PHID                         -1                                  
    1PSUBC                         0                                  
    1PMODE                         1                                  
  100CL  101 1548.498879          18                     2    1MODAL      1
 -4  DISP        4    1
 -5  D1          1    2    1    0
 -5  D2          1    2    2    0
 -5  D3          1    2    3    0
 -5  ALL         1    2    0    0    1ALL
 -1   2000001 2.74873E-02 1.00534E-02-1.56258E-02
 -1   2000002 0.00000E+00 0.00000E+00 0.00000E+00
 -1   2000003 0.00000E+00 0.00000E+00 0.00000E+00
 -1   2000004 2.56196E-02-1.37123E-03-1.12346E-02
 -1   2000005 2.56196E-02-1.37123E-03 1.12346E-02
 -1   2000006 0.00000E+00 0.00000E+00 0.00000E+00
 -1   2000007 0.00000E+00 0.00000E+00 0.00000E+00
 -1   2000008 2.74873E-02 1.00534E-02 1.56258E-02
 -1   2000009 0.00000E+00 0.00000E+00 0.00000E+00
 -1   2000010 2.88152E-02 3.85410E-03-1.16325E-02
 -1   2000011 0.00000E+00 0.00000E+00 0.00000E+00
 -1   2000012 2.35747E-02 4.71085E-03-1.90174E-03
 -1   2000013 0.00000E+00 0.00000E+00 0.00000E+00
 -1   2000014 0.00000E+00 0.00000E+00 0.00000E+00
 -1   2000015 2.35747E-02 4.71085E-03 1.90174E-03
 -1   2000016 2.88152E-02 3.85410E-03 1.16325E-02
 -1   2000017 0.00000E+00 0.00000E+00 0.00000E+00
 -1   2000018 2.62800E-02 4.29638E-03 1.62630E-18
 -3
    1PSTEP                         2           1           1          
    1PGM                1.000000E+00                                  
    1PGK                9.466328E+07                                  
    1PHID                         -1                                  
    1PSUBC                         0                                  
    1PMODE                         1                                  
  100CL  101 1548.498879          18                     2    1MODAL      1
 -4  STRESS      6    1
 -5  SXX         1    4    1    1
 -5  SYY         1    4    2    2
 -5  SZZ         1    4    3    3
 -5  SXY         1    4    1    2
 -5  SYZ         1    4    2    3
 -5  SZX         1    4    3    1
 -1   2000001 7.19774E+07-6.66786E+08 6.38426E+09-6.48509E+08-9.78910E+08-2.22317E+09
 -1   2000002 3.78621E+09 3.78621E+09 8.83443E+09-8.69695E+02-1.62397E+09-4.44012E+09
 -1   2000003 2.72219E+09 2.72219E+09 6.35172E+09 6.25288E+02 2.21515E+08-4.13841E+09
 -1   2000004 2.99936E+08-7.27588E+08 4.59012E+09 4.66261E+08 2.85804E+08-2.01640E+09
 -1   2000005-2.99936E+08 7.27588E+08-4.59012E+09-4.66261E+08 2.85804E+08-2.01640E+09
 -1   2000006-2.72219E+09-2.72219E+09-6.35172E+09-6.25288E+02 2.21515E+08-4.13841E+09
 -1   2000007-3.78621E+09-3.78621E+09-8.83443E+09 8.69695E+02-1.62397E+09-4.44012E+09
 -1   2000008-7.19774E+07 6.66786E+08-6.38426E+09 6.48509E+08-9.78910E+08-2.22317E+09
 -1   2000009 2.81862E+09 2.81862E+09 6.57672E+09-8.06578E+01-6.22564E+08-4.65463E+09
 -1   2000010 1.14648E+06-1.02529E+09 4.57831E+09-7.94105E+07-2.67887E+08-2.77554E+09
 -1   2000011 4.60801E+08 4.60802E+08 1.07519E+09-4.93366E+02-7.60961E+08-3.80809E+09
 -1   2000012-1.67620E+08 1.87432E+05 7.48483E+08-4.85737E+08-4.53758E+08-1.63861E+09
 -1   2000013-4.60801E+08-4.60802E+08-1.07519E+09 4.93366E+02-7.60961E+08-3.80809E+09
 -1   2000014-2.81862E+09-2.81862E+09-6.57672E+09 8.06578E+01-6.22564E+08-4.65463E+09
 -1   2000015 1.67620E+08-1.87432E+05-7.48483E+08 4.85737E+08-4.53758E+08-1.63861E+09
 -1   2000016-1.14648E+06 1.02529E+09-4.57831E+09 7.94105E+07-2.67887E+08-2.77554E+09
 -1   2000017 1.65822E-06 5.39614E-07 1.30385E-07 2.32831E-08-6.94009E+08-4.24510E+09
 -1   2000018 5.06639E-06 5.51343E-06 2.32458E-06 1.87755E-06-3.86806E+08-2.36601E+09
 -3
    1PSTEP                         3           1           1          
    1PGM                1.000000E+00                                  
    1PGK                9.466328E+07                                  
    1PHID                         -1                                  
    1PSUBC                         0                                  
    1PMODE                         1                                  
  100CL  101 1548.498879          18                     2    1MODAL      1
 -4  ERROR       1    1
 -5  STR(%)      1    1    0    0
 -1   2000001 4.90490E+01
 -1   2000002 4.90490E+01
 -1   2000003 5.30413E+01
 -1   2000004 5.30413E+01
 -1   2000005 5.30413E+01
 -1   2000006 5.30413E+01
 -1   2000007 4.90490E+01
 -1   2000008 4.90490E+01
 -1   2000009 5.30413E+01
 -1   2000010 5.30413E+01
 -1   2000011 5.30413E+01
 -1   2000012 5.30413E+01
 -1   2000013 5.30413E+01
 -1   2000014 5.30413E+01
 -1   2000015 5.30413E+01
 -1   2000016 5.30413E+01
 -1   2000017 5.30413E+01
 -1   2000018 5.30413E+01
 -3
    1PSTEP                         4           1           1          
    1PGM                1.000000E+00                                  
    1PGK                9.466328E+07                                  
    1PHID                         -1                                  
    1PSUBC                         0                                  
    1PMODE                         2                                  
  100CL  102 1548.498879          18                     2    2MODAL      1
 -4  DISP        4    1
 -5  D1          1    2    1    0
 -5  D2          1    2    2    0
 -5  D3          1    2    3    0
 -5  ALL         1    2    0    0    1ALL
 -1   2000001 1.37123E-03 2.56196E-02-1.12346E-02
 -1   2000002 0.00000E+00 0.00000E+00 0.00000E+00
 -1   2000003 0.00000E+00 0.00000E+00 0.00000E+00
 -1   2000004-1.00534E-02 2.74873E-02 1.56258E-02
 -1   2000005-1.00534E-02 2.74873E-02-1.56258E-02
 -1   2000006 0.00000E+00 0.00000E+00 0.00000E+00
 -1   2000007 0.00000E+00 0.00000E+00 0.00000E+00
 -1   2000008 1.37123E-03 2.56196E-02 1.12346E-02
 -1   2000009 0.00000E+00 0.00000E+00 0.00000E+00
 -1   2000010-4.71085E-03 2.35747E-02 1.90174E-03
 -1   2000011 0.00000E+00 0.00000E+00 0.00000E+00
 -1   2000012-3.85410E-03 2.88152E-02-1.16325E-02
 -1   2000013 0.00000E+00 0.00000E+00 0.00000E+00
 -1   2000014 0.00000E+00 0.00000E+00 0.00000E+00
 -1   2000015-3.85410E-03 2.88152E-02 1.16325E-02
 -1   2000016-4.71085E-03 2.35747E-02-1.90174E-03
 -1   2000017 0.00000E+00 0.00000E+00 0.00000E+00
 -1   2000018-4.29638E-03 2.62800E-02 7.80626E-18
 -3
    1PSTEP                         5           1           1          
    1PGM                1.000000E+00                                  
    1PGK                9.466328E+07                                  
    1PHID                         -1                                  
    1PSUBC                         0                                  
    1PMODE                         2                                  
  100CL  102 1548.498879          18                     2    2MODAL      1
 -4  STRESS      6    1
 -5  SXX         1    4    1    1
 -5  SYY         1    4    2    2
 -5  SZZ         1    4    3    3
 -5  SXY         1    4    1    2
 -5  SYZ         1    4    2    3
 -5  SZX         1    4    3    1
 -1   2000001-7.27588E+08 2.99936E+08 4.59012E+09-4.66261E+08-2.01640E+09-2.85804E+08
 -1   2000002 2.72219E+09 2.72219E+09 6.35172E+09-6.25288E+02-4.13841E+09-2.21515E+08
 -1   2000003-3.78621E+09-3.78621E+09-8.83443E+09-8.69695E+02-4.44012E+09 1.62397E+09
 -1   2000004 6.66786E+08-7.19774E+07-6.38426E+09-6.48509E+08-2.22317E+09 9.78910E+08
 -1   2000005-6.66786E+08 7.19774E+07 6.38426E+09 6.48509E+08-2.22317E+09 9.78910E+08
 -1   2000006 3.78621E+09 3.78621E+09 8.83443E+09 8.69695E+02-4.44012E+09 1.62397E+09
 -1   2000007-2.72219E+09-2.72219E+09-6.35172E+09 6.25288E+02-4.13841E+09-2.21515E+08
 -1   2000008 7.27588E+08-2.99936E+08-4.59012E+09 4.66261E+08-2.01640E+09-2.85804E+08
 -1   2000009-4.60802E+08-4.60801E+08-1.07519E+09-4.93366E+02-3.80809E+09 7.60961E+08
 -1   2000010-1.87432E+05 1.67620E+08-7.48483E+08-4.85737E+08-1.63861E+09 4.53758E+08
 -1   2000011 2.81862E+09 2.81862E+09 6.57672E+09 8.06578E+01-4.65463E+09 6.22564E+08
 -1   2000012-1.02529E+09 1.14648E+06 4.57831E+09 7.94105E+07-2.77554E+09 2.67887E+08
 -1   2000013-2.81862E+09-2.81862E+09-6.57672E+09-8.06578E+01-4.65463E+09 6.22564E+08
 -1   2000014 4.60802E+08 4.60801E+08 1.07519E+09 4.93366E+02-3.80809E+09 7.60961E+08
 -1   2000015 1.02529E+09-1.14648E+06-4.57831E+09-7.94105E+07-2.77554E+09 2.67887E+08
 -1   2000016 1.87432E+05-1.67620E+08 7.48483E+08 4.85737E+08-1.63861E+09 4.53758E+08
 -1   2000017-2.52575E-06-2.53879E-06-4.79817E-06 1.01514E-07-4.24510E+09 6.94009E+08
 -1   2000018 6.64592E-06 7.03335E-06 6.85453E-07-1.98185E-06-2.36601E+09 3.86806E+08
 -3
    1PSTEP                         6           1           1          
    1PGM                1.000000E+00                                  
    1PGK                9.466328E+07                                  
    1PHID                         -1                                  
    1PSUBC                         0                                  
    1PMODE                         2                                  
  100CL  102 1548.498879          18                     2    2MODAL      1
 -4  ERROR       1    1
 -5  STR(%)      1    1    0    0
 -1   2000001 5.30413E+01
 -1   2000002 5.30413E+01
 -1   2000003 4.90490E+01
 -1   2000004 4.90490E+01
 -1   2000005 4.90490E+01
 -1   2000006 4.90490E+01
 -1   2000007 5.30413E+01
 -1   2000008 5.30413E+01
 -1   2000009 5.30413E+01
 -1   2000010 5.30413E+01
 -1   2000011 5.30413E+01
 -1   2000012 5.30413E+01
 -1   2000013 5.30413E+01
 -1   2000014 5.30413E+01
 -1   2000015 5.30413E+01
 -1   2000016 5.30413E+01
 -1   2000017 5.30413E+01
 -1   2000018 5.30413E+01
 -3
    1PSTEP                         7           1           1          
    1PGM                1.000000E+00                                  
    1PGK                1.242604E+08                                  
    1PHID                         -1                                  
    1PSUBC                         0                                  
    1PMODE                         3                                  
  100CL  103 1774.134032          18                     2    3MODAL      1
 -4  DISP        4    1
 -5  D1          1    2    1    0
 -5  D2          1    2    2    0
 -5  D3          1    2    3    0
 -5  ALL         1    2    0    0    1ALL
 -1   2000001 3.39683E-02-3.39683E-02-3.46945E-18
 -1   2000002 0.00000E+00 0.00000E+00 0.00000E+00
 -1   2000003 0.00000E+00 0.00000E+00 0.00000E+00
 -1   2000004-3.39683E-02-3.39683E-02 1.73472E-18
 -1   2000005 3.39683E-02 3.39683E-02 3.46945E-18
 -1   2000006 0.00000E+00 0.00000E+00 0.00000E+00
 -1   2000007 0.00000E+00 0.00000E+00 0.00000E+00
 -1   2000008-3.39683E-02 3.39683E-02 8.67362E-19
 -1   2000009 0.00000E+00 0.00000E+00 0.00000E+00
 -1   2000010 4.85723E-17-3.39683E-02-1.04083E-17
 -1   2000011 0.00000E+00 0.00000E+00 0.00000E+00
 -1   2000012 3.39683E-02 1.21431E-17-5.20417E-18
 -1   2000013 0.00000E+00 0.00000E+00 0.00000E+00
 -1   2000014 0.00000E+00 0.00000E+00 0.00000E+00
 -1   2000015-3.39683E-02 5.20417E-18 6.93889E-18
 -1   2000016 3.54534E-17 3.39683E-02 2.81893E-18
 -1   2000017 0.00000E+00 0.00000E+00 0.00000E+00
 -1   2000018 4.85723E-17 5.20417E-18-6.50521E-19
 -3
    1PSTEP                         8           1           1          
    1PGM                1.000000E+00                                  
    1PGK                1.242604E+08                                  
    1PHID                         -1                                  
    1PSUBC                         0                                  
    1PMODE                         3                                  
  100CL  103 1774.134032          18                     2    3MODAL      1
 -4  STRESS      6    1
 -5  SXX         1    4    1    1
 -5  SYY         1    4    2    2
 -5  SZZ         1    4    3    3
 -5  SXY         1    4    1    2
 -5  SYZ         1    4    2    3
 -5  SZX         1    4    3    1
 -1   2000001 1.87378E-05 1.61140E-05 1.19126E-05 3.92860E-06 5.48706E+09-5.48706E+09
 -1   2000002 5.83348E-07 6.33859E-07 1.82226E-06 1.84483E-07 5.48706E+09-5.48706E+09
 -1   2000003 1.01866E-06 7.27087E-07-2.04862E-07 1.20648E-07 5.48706E+09 5.48706E+09
 -1   2000004-9.92460E-06 8.18475E-06-1.25054E-06-1.12116E-05 5.48706E+09 5.48706E+09
 -1   2000005 5.81227E-06-1.26755E-05-3.51613E-06 2.87096E-07-5.48706E+09-5.48706E+09
 -1   2000006-1.73084E-06-8.89728E-07-2.24332E-06 2.54584E-07-5.48706E+09-5.48706E+09
 -1   2000007-6.48223E-07-4.47952E-07-6.93114E-07-6.48171E-07-5.48706E+09 5.48706E+09
 -1   2000008 1.30514E-05 8.07445E-06 5.97349E-06-5.87855E-07-5.48706E+09 5.48706E+09
 -1   2000009 2.80700E-06 2.90768E-06 6.08583E-06-1.02007E-07 5.48706E+09-7.04825E-06
 -1   2000010 7.52318E-06 1.46327E-05 1.10182E-05-2.11720E-06 5.48706E+09-5.66244E-06
 -1   2000011 5.40621E-07 7.90932E-07 2.58516E-06-6.00510E-07-2.42889E-06-5.48706E+09
 -1   2000012 1.38886E-05 3.80275E-06 7.49309E-06 4.17380E-06-2.02656E-06-5.48706E+09
 -1   2000013-1.39142E-06-1.71780E-06-3.84707E-06 2.79914E-07-7.15256E-07 5.48706E+09
 -1   2000014-7.70111E-09-2.52411E-07-1.26195E-06-8.85313E-08-5.48706E+09-5.36442E-06
 -1   2000015-3.75398E-06-2.45617E-06-4.77735E-06-1.15841E-05 1.19209E-06 5.48706E+09
 -1   2000016-1.28329E-05-1.19327E-05-8.61360E-06-3.48169E-06-5.48706E+09-5.48363E-06
 -1   2000017 4.01512E-07 1.44542E-08 3.97999E-07 1.97181E-07-8.64267E-07-7.86781E-06
 -1   2000018-5.00080E-06-3.10798E-06-2.15943E-06-4.72404E-06 3.87430E-07-7.00355E-06
 -3
    1PSTEP                         9           1           1          
    1PGM                1.000000E+00                                  
    1PGK                1.242604E+08                                  
    1PHID                         -1                                  
    1PSUBC                         0                                  
    1PMODE                         3                                  
  100CL  103 1774.134032          18                     2    3MODAL      1
 -4  ERROR       1    1
 -5  STR(%)      1    1    0    0
 -1   2000001 5.40655E+01
 -1   2000002 5.40655E+01
 -1   2000003 5.40655E+01
 -1   2000004 5.40655E+01
 -1   2000005 5.40655E+01
 -1   2000006 5.40655E+01
 -1   2000007 5.40655E+01
 -1   2000008 5.40655E+01
 -1   2000009 5.40655E+01
 -1   2000010 5.40655E+01
 -1   2000011 5.40655E+01
 -1   2000012 5.40655E+01
 -1   2000013 5.40655E+01
 -1   2000014 5.40655E+01
 -1   2000015 5.40655E+01
 -1   2000016 5.40655E+01
 -1   2000017 5.40655E+01
 -1   2000018 5.40655E+01
 -3
    1PSTEP                        10           1           1          
    1PGM                1.000000E+00                                  
    1PGK                2.991856E+08                                  
    1PHID                         -1                                  
    1PSUBC                         0                                  
    1PMODE                         4                                  
  100CL  104 2752.900338          18                     2    4MODAL      1
 -4  DISP        4    1
 -5  D1          1    2    1    0
 -5  D2          1    2    2    0
 -5  D3          1    2    3    0
 -5  ALL         1    2    0    0    1ALL
 -1   2000001-3.49828E-02-3.49828E-02 3.61178E-02
 -1   2000002 0.00000E+00 0.00000E+00 0.00000E+00
 -1   2000003 0.00000E+00 0.00000E+00 0.00000E+00
 -1   2000004 3.49828E-02-3.49828E-02-3.61178E-02
 -1   2000005-3.49828E-02 3.49828E-02-3.61178E-02
 -1   2000006 0.00000E+00 0.00000E+00 0.00000E+00
 -1   2000007 0.00000E+00 0.00000E+00 0.00000E+00
 -1   2000008 3.49828E-02 3.49828E-02 3.61178E-02
 -1   2000009 0.00000E+00 0.00000E+00 0.00000E+00
 -1   2000010 1.43201E-15-2.59994E-02-2.00881E-15
 -1   2000011 0.00000E+00 0.00000E+00 0.00000E+00
 -1   2000012-2.59994E-02 1.20043E-15-1.87697E-15
 -1   2000013 0.00000E+00 0.00000E+00 0.00000E+00
 -1   2000014 0.00000E+00 0.00000E+00 0.00000E+00
 -1   2000015 2.59994E-02-1.14839E-15-1.80411E-15
 -1   2000016-1.37347E-15 2.59994E-02-1.96197E-15
 -1   2000017 0.00000E+00 0.00000E+00 0.00000E+00
 -1   2000018 3.46945E-18 5.72459E-17-1.13668E-15
 -3
    1PSTEP                        11           1           1          
    1PGM                1.000000E+00                                  
    1PGK                2.991856E+08                                  
    1PHID                         -1                                  
    1PSUBC                         0                                  
    1PMODE                         4                                  
  100CL  104 2752.900338          18                     2    4MODAL      1
 -4  STRESS      6    1
 -5  SXX         1    4    1    1
 -5  SYY         1    4    2    2
 -5  SZZ         1    4    3    3
 -5  SXY         1    4    1    2
 -5  SYZ         1    4    2    3
 -5  SZX         1    4    3    1
 -1   2000001-1.49577E+09-1.49577E+09-1.60667E+10 1.13019E+10-1.83373E+08-1.83373E+08
 -1   2000002-8.75152E+09-8.75152E+09-2.04201E+10-1.61138E+05 5.65098E+09 5.65098E+09
 -1   2000003 8.75152E+09 8.75152E+09 2.04201E+10-1.61138E+05 5.65098E+09-5.65098E+09
 -1   2000004 1.49577E+09 1.49577E+09 1.60667E+10 1.13019E+10-1.83373E+08 1.83373E+08
 -1   2000005 1.49577E+09 1.49577E+09 1.60667E+10 1.13019E+10 1.83373E+08-1.83373E+08
 -1   2000006 8.75152E+09 8.75152E+09 2.04201E+10-1.61138E+05-5.65098E+09 5.65098E+09
 -1   2000007-8.75152E+09-8.75152E+09-2.04201E+10-1.61138E+05-5.65098E+09-5.65098E+09
 -1   2000008-1.49577E+09-1.49577E+09-1.60667E+10 1.13019E+10 1.83373E+08 1.83373E+08
 -1   2000009 4.87432E-04 4.86609E-04 1.13610E-03-1.66285E+05 4.19983E+09-2.32002E-04
 -1   2000010-7.00951E-04-7.46727E-04 4.10557E-04 9.85073E+09-1.63452E+09-9.07965E-05
 -1   2000011 4.56162E-04 4.55014E-04 1.06154E-03-1.66285E+05-1.94027E-04 4.19983E+09
 -1   2000012-8.02040E-04-6.11067E-04 3.63350E-04 9.85073E+09-7.45654E-05-1.63452E+09
 -1   2000013 4.36485E-04 4.37289E-04 1.02031E-03-1.66285E+05 1.85832E-04-4.19983E+09
 -1   2000014 4.74960E-04 4.74930E-04 1.10829E-03-1.66285E+05-4.19983E+09 2.22355E-04
 -1   2000015-6.65665E-04-5.91278E-04 3.80516E-04 9.85073E+09 7.86781E-05 1.63452E+09
 -1   2000016-6.41108E-04-6.48499E-04 4.37737E-04 9.85073E+09 1.63452E+09 8.87215E-05
 -1   2000017 2.75053E-04 2.75290E-04 6.42400E-04-1.71432E+05-8.93418E-06-8.33534E-07
 -1   2000018-8.01444E-04-7.28168E-04 1.84178E-05 8.39958E+09-3.10130E-06 3.33227E-06
 -3
    1PSTEP                        12           1           1          
    1PGM                1.000000E+00                                  
    1PGK                2.991856E+08                                  
    1PHID                         -1                                  
    1PSUBC                         0                                  
    1PMODE                         4                                  
  100CL  104 2752.900338          18                     2    4MODAL      1
 -4  ERROR       1    1
 -5  STR(%)      1    1    0    0
 -1   2000001 6.47034E+01
 -1   2000002 6.47034E+01
 -1   2000003 6.47034E+01
 -1   2000004 6.47034E+01
 -1   2000005 6.47034E+01
 -1   2000006 6.47034E+01
 -1   2000007 6.47034E+01
 -1   2000008 6.47034E+01
 -1   2000009 6.47034E+01
 -1   2000010 6.47034E+01
 -1   2000011 6.47034E+01
 -1   2000012 6.47034E+01
 -1   2000013 6.47034E+01
 -1   2000014 6.47034E+01
 -1   2000015 6.47034E+01
 -1   2000016 6.47034E+01
 -1   2000017 6.47034E+01
 -1   2000018 6.47034E+01
 -3
    1PSTEP                        13           1           1          
    1PGM                1.000000E+00                                  
    1PGK                3.005311E+08                                  
    1PHID                         -1                                  
    1PSUBC                         0                                  
    1PMODE                         5                                  
  100CL  105 2759.083282          18                     2    5MODAL      1
 -4  DISP        4    1
 -5  D1          1    2    1    0
 -5  D2          1    2    2    0
 -5  D3          1    2    3    0
 -5  ALL         1    2    0    0    1ALL
 -1   2000001 1.83914E-02 1.83914E-02-3.45159E-02
 -1   2000002 0.00000E+00 0.00000E+00 0.00000E+00
 -1   2000003 0.00000E+00 0.00000E+00 0.00000E+00
 -1   2000004 1.83914E-02-1.83914E-02-3.45159E-02
 -1   2000005-1.83914E-02 1.83914E-02-3.45159E-02
 -1   2000006 0.00000E+00 0.00000E+00 0.00000E+00
 -1   2000007 0.00000E+00 0.00000E+00 0.00000E+00
 -1   2000008-1.83914E-02-1.83914E-02-3.45159E-02
 -1   2000009 0.00000E+00 0.00000E+00 0.00000E+00
 -1   2000010 1.56520E-02 2.20657E-15-2.31573E-02
 -1   2000011 0.00000E+00 0.00000E+00 0.00000E+00
 -1   2000012 2.18662E-15 1.56520E-02-2.31573E-02
 -1   2000013 0.00000E+00 0.00000E+00 0.00000E+00
 -1   2000014 0.00000E+00 0.00000E+00 0.00000E+00
 -1   2000015-2.10942E-15-1.56520E-02-2.31573E-02
 -1   2000016-1.56520E-02-2.10595E-15-2.31573E-02
 -1   2000017 0.00000E+00 0.00000E+00 0.00000E+00
 -1   2000018-3.46945E-17-2.94903E-17-1.36086E-02
 -3
    1PSTEP                        14           1           1          
    1PGM                1.000000E+00                                  
    1PGK                3.005311E+08                                  
    1PHID                         -1                                  
    1PSUBC                         0                                  
    1PMODE                         5                                  
  100CL  105 2759.083282          18                     2    5MODAL      1
 -4  STRESS      6    1
 -5  SXX         1    4    1    1
 -5  SYY         1    4    2    2
 -5  SZZ         1    4    3    3
 -5  SXY         1    4    1    2
 -5  SYZ         1    4    2    3
 -5  SZX         1    4    3    1
 -1   2000001-6.49106E+09-6.49106E+09 1.06016E+10-8.85039E+08-1.13604E+09-1.13604E+09
 -1   2000002 8.36344E+09 8.36344E+09 1.95143E+10 5.90036E+03-2.97088E+09-2.97088E+09
 -1   2000003 8.36344E+09 8.36344E+09 1.95143E+10-5.90036E+03 2.97088E+09-2.97088E+09
 -1   2000004-6.49106E+09-6.49106E+09 1.06016E+10 8.85039E+08 1.13604E+09-1.13604E+09
 -1   2000005-6.49106E+09-6.49106E+09 1.06016E+10 8.85039E+08-1.13604E+09 1.13604E+09
 -1   2000006 8.36344E+09 8.36344E+09 1.95143E+10-5.90036E+03-2.97088E+09 2.97088E+09
 -1   2000007 8.36344E+09 8.36344E+09 1.95143E+10 5.90036E+03 2.97088E+09 2.97088E+09
 -1   2000008-6.49106E+09-6.49106E+09 1.06016E+10-8.85039E+08 1.13604E+09 1.13604E+09
 -1   2000009 5.61119E+09 5.61118E+09 1.30924E+10 1.86265E-09-3.56432E-04-2.52836E+09
 -1   2000010-7.69449E+09-8.57953E+09 4.84345E+09-8.12799E-04 1.19448E-04-9.85888E+08
 -1   2000011 5.61118E+09 5.61119E+09 1.30924E+10 6.51926E-08-2.52836E+09-3.53403E-04
 -1   2000012-8.57953E+09-7.69449E+09 4.84345E+09-8.09461E-04-9.85888E+08 1.20401E-04
 -1   2000013 5.61118E+09 5.61119E+09 1.30924E+10 2.08616E-07 2.52836E+09 3.40834E-04
 -1   2000014 5.61119E+09 5.61118E+09 1.30924E+10-6.70552E-08 3.40179E-04 2.52836E+09
 -1   2000015-8.57953E+09-7.69449E+09 4.84345E+09-8.16822E-04 9.85888E+08-1.45674E-04
 -1   2000016-7.69449E+09-8.57953E+09 4.84345E+09-8.17269E-04-1.45555E-04 9.85888E+08
 -1   2000017 3.29748E+09 3.29748E+09 7.69371E+09 4.09782E-08 4.97140E-06 5.48176E-06
 -1   2000018-9.34441E+09-9.34441E+09 1.08574E+08-6.95467E-04 1.01328E-06 5.12600E-06
 -3
    1PSTEP                        15           1           1          
    1PGM                1.000000E+00                                  
    1PGK                3.005311E+08                                  
    1PHID                         -1                                  
    1PSUBC                         0                                  
    1PMODE                         5                                  
  100CL  105 2759.083282          18                     2    5MODAL      1
 -4  ERROR       1    1
 -5  STR(%)      1    1    0    0
 -1   2000001 5.55536E+01
 -1   2000002 5.55536E+01
 -1   2000003 5.55536E+01
 -1   2000004 5.55536E+01
 -1   2000005 5.55536E+01
 -1   2000006 5.55536E+01
 -1   2000007 5.55536E+01
 -1   2000008 5.55536E+01
 -1   2000009 5.55536E+01
 -1   2000010 5.55536E+01
 -1   2000011 5.55536E+01
 -1   2000012 5.55536E+01
 -1   2000013 5.55536E+01
 -1   2000014 5.55536E+01
 -1   2000015 5.55536E+01
 -1   2000016 5.55536E+01
 -1   2000017 5.55536E+01
 -1   2000018 5.55536E+01
 -3
    1PSTEP                        16           1           1          
    1PGM                1.000000E+00                                  
    1PGK                3.098802E+08                                  
    1PHID                         -1                                  
    1PSUBC                         0                                  
    1PMODE                         6                                  
  100CL  106 2801.670344          18                     2    6MODAL      1
 -4  DISP        4    1
 -5  D1          1    2    1    0
 -5  D2          1    2    2    0
 -5  D3          1    2    3    0
 -5  ALL         1    2    0    0    1ALL
 -1   2000001-2.38294E-02 2.38294E-02 3.12250E-17
 -1   2000002 0.00000E+00 0.00000E+00 0.00000E+00
 -1   2000003 0.00000E+00 0.00000E+00 0.00000E+00
 -1   2000004-2.38294E-02-2.38294E-02-1.79978E-16
 -1   2000005 2.38294E-02 2.38294E-02-1.96024E-16
 -1   2000006 0.00000E+00 0.00000E+00 0.00000E+00
 -1   2000007 0.00000E+00 0.00000E+00 0.00000E+00
 -1   2000008 2.38294E-02-2.38294E-02-1.04083E-17
 -1   2000009 0.00000E+00 0.00000E+00 0.00000E+00
 -1   2000010-3.99349E-02-4.85723E-17 2.15184E-02
 -1   2000011 0.00000E+00 0.00000E+00 0.00000E+00
 -1   2000012-4.51028E-17 3.99349E-02-2.15184E-02
 -1   2000013 0.00000E+00 0.00000E+00 0.00000E+00
 -1   2000014 0.00000E+00 0.00000E+00 0.00000E+00
 -1   2000015 7.28584E-17-3.99349E-02-2.15184E-02
 -1   2000016 3.99349E-02 9.71445E-17 2.15184E-02
 -1   2000017 0.00000E+00 0.00000E+00 0.00000E+00
 -1   2000018 5.20417E-18-1.73472E-17-4.16334E-17
 -3
    1PSTEP                        17           1           1          
    1PGM                1.000000E+00                                  
    1PGK                3.098802E+08                                  
    1PHID                         -1                                  
    1PSUBC                         0                                  
    1PMODE                         6                                  
  100CL  106 2801.670344          18                     2    6MODAL      1
 -4  STRESS      6    1
 -5  SXX         1    4    1    1
 -5  SYY         1    4    2    2
 -5  SZZ         1    4    3    3
 -5  SXY         1    4    1    2
 -5  SYZ         1    4    2    3
 -5  SZX         1    4    3    1
 -1   2000001 7.69851E+09-7.69851E+09-3.01499E-06 3.60614E-05-3.73283E+08 3.73283E+08
 -1   2000002-1.83099E+05 1.83099E+05-1.83930E-05 5.47840E-07-3.84931E+09 3.84931E+09
 -1   2000003-1.83099E+05 1.83099E+05 1.02401E-04-2.08616E-07 3.84931E+09 3.84931E+09
 -1   2000004 7.69851E+09-7.69851E+09 6.10352E-05 3.89814E-05 3.73283E+08 3.73283E+08
 -1   2000005 7.69851E+09-7.69851E+09 9.29832E-05 1.56164E-05-3.73283E+08-3.73283E+08
 -1   2000006-1.83099E+05 1.83099E+05 1.10865E-04-4.17233E-07-3.84931E+09-3.84931E+09
 -1   2000007-1.83099E+05 1.83099E+05 4.58984E-06 8.69528E-08 3.84931E+09-3.84931E+09
 -1   2000008 7.69851E+09-7.69851E+09-3.78166E-06 3.72938E-05 3.73283E+08-3.73283E+08
 -1   2000009-5.21419E+09-5.21385E+09-1.21661E+10 6.02122E-08 8.31485E-06 6.45095E+09
 -1   2000010 1.15902E+10-9.01010E+09-8.26365E+09 2.59876E-05-9.05991E-06 2.97492E+09