    1C
    1UModel: box_1                                                      
    1UUSER                                                              
    1UDATE              21.october.2025                                 
    1UTIME              16:16:55                                        
    1UHOST                                                              
    1UPGM               CalculiX                                        
    1UVERSION           Version 2.21                             
    1UCOMPILETIME       Sat Jul 29 10:52:01 CEST 2023                    
    1UDIR                                                               
    1UDBN                                                               
    1UMAT    1MAT1                                                      
    2C                            27                                     1
 -1     10001 0.00000E+00 0.00000E+00 1.00000E+02
 -1     10002 0.00000E+00 0.00000E+00 0.00000E+00
 -1     10003 0.00000E+00 1.00000E+02 1.00000E+02
 -1     10004 0.00000E+00 1.00000E+02 0.00000E+00
 -1     10005 1.00000E+02 0.00000E+00 1.00000E+02
 -1     10006 1.00000E+02 0.00000E+00 0.00000E+00
 -1     10007 1.00000E+02 1.00000E+02 1.00000E+02
 -1     10008 1.00000E+02 1.00000E+02 0.00000E+00
 -1     10009 0.00000E+00 0.00000E+00 5.00000E+01
 -1     10010 0.00000E+00 5.00000E+01 1.00000E+02
 -1     10011 0.00000E+00 1.00000E+02 5.00000E+01
 -1     10012 0.00000E+00 5.00000E+01 0.00000E+00
 -1     10013 1.00000E+02 0.00000E+00 5.00000E+01
 -1     10014 1.00000E+02 5.00000E+01 1.00000E+02
 -1     10015 1.00000E+02 1.00000E+02 5.00000E+01
 -1     10016 1.00000E+02 5.00000E+01 0.00000E+00
 -1     10017 5.00000E+01 0.00000E+00 0.00000E+00
 -1     10018 5.00000E+01 0.00000E+00 1.00000E+02
 -1     10019 5.00000E+01 1.00000E+02 0.00000E+00
 -1     10020 5.00000E+01 1.00000E+02 1.00000E+02
 -1     10021 0.00000E+00 5.00000E+01 5.00000E+01
 -1     10022 1.00000E+02 5.00000E+01 5.00000E+01
 -1     10023 5.00000E+01 0.00000E+00 5.00000E+01
 -1     10024 5.00000E+01 1.00000E+02 5.00000E+01
 -1     10025 5.00000E+01 5.00000E+01 0.00000E+00
 -1     10026 5.00000E+01 5.00000E+01 1.00000E+02
 -1     10027 5.00000E+01 5.00000E+01 5.00000E+01
 -3
    3C                             8                                     1
 -1     10049    1    0    1
 -2     10001     10009     10021     10010     10018     10023     10027     10026
 -1     10050    1    0    1
 -2     10018     10023     10027     10026     10005     10013     10022     10014
 -1     10051    1    0    1
 -2     10010     10021     10011     10003     10026     10027     10024     10020
 -1     10052    1    0    1
 -2     10026     10027     10024     10020     10014     10022     10015     10007
 -1     10053    1    0    1
 -2     10009     10002     10012     10021     10023     10017     10025     10027
 -1     10054    1    0    1
 -2     10023     10017     10025     10027     10013     10006     10016     10022
 -1     10055    1    0    1
 -2     10021     10012     10004     10011     10027     10025     10019     10024
 -1     10056    1    0    1
 -2     10027     10025     10019     10024     10022     10016     10008     10015
 -3
    1PSTEP                         1           1           1          
    1PGM                1.000000E+00                                  
    1PGK                1.465545E+03                                  
    1PHID                         -1                                  
    1PSUBC                         0                                  
    1PMODE                         1                                  
  100CL  101 6.092839867          27                     2    1MODAL      1
 -4  DISP        4    1
 -5  D1          1    2    1    0
 -5  D2          1    2    2    0
 -5  D3          1    2    3    0
 -5  ALL         1    2    0    0    1ALL
 -1     10001 1.88478E-05 2.85485E-07 7.99122E-06
 -1     10002 0.00000E+00 0.00000E+00 0.00000E+00
 -1     10003 1.88620E-05-7.85333E-07 8.20592E-06
 -1     10004 0.00000E+00 0.00000E+00 0.00000E+00
 -1     10005 1.88620E-05-7.85333E-07-8.20592E-06
 -1     10006 0.00000E+00 0.00000E+00 0.00000E+00
 -1     10007 1.88478E-05 2.85485E-07-7.99122E-06
 -1     10008 0.00000E+00 0.00000E+00 0.00000E+00
 -1     10009 9.23530E-06 1.38455E-06 6.03866E-06
 -1     10010 1.93327E-05-2.50046E-07 8.42340E-06
 -1     10011 9.27525E-06-1.62991E-06 6.20089E-06
 -1     10012 0.00000E+00 0.00000E+00 0.00000E+00
 -1     10013 9.27525E-06-1.62991E-06-6.20089E-06
 -1     10014 1.93327E-05-2.50046E-07-8.42340E-06
 -1     10015 9.23530E-06 1.38455E-06-6.03866E-06
 -1     10016 0.00000E+00 0.00000E+00 0.00000E+00
 -1     10017 0.00000E+00 0.00000E+00 0.00000E+00
 -1     10018 1.88642E-05-2.56257E-07-1.11653E-07
 -1     10019 0.00000E+00 0.00000E+00 0.00000E+00
 -1     10020 1.88642E-05-2.56257E-07 1.11653E-07
 -1     10021 9.87980E-06-1.10736E-07 6.07853E-06
 -1     10022 9.87980E-06-1.10736E-07-6.07853E-06
 -1     10023 8.35422E-06-1.30958E-07-8.05713E-08
 -1     10024 8.35422E-06-1.30958E-07 8.05713E-08
 -1     10025 0.00000E+00 0.00000E+00 0.00000E+00
 -1     10026 1.92642E-05-2.55348E-07 1.69407E-21
 -1     10027 8.95641E-06-1.18718E-07 8.47033E-22
 -3
    1PSTEP                         2           1           1          
    1PGM                1.000000E+00                                  
    1PGK                1.465545E+03                                  
    1PHID                         -1                                  
    1PSUBC                         0                                  
    1PMODE                         1                                  
  100CL  101 6.092839867          27                     2    1MODAL      1
 -4  STRESS      6    1
 -5  SXX         1    4    1    1
 -5  SYY         1    4    2    2
 -5  SZZ         1    4    3    3
 -5  SXY         1    4    1    2
 -5  SYZ         1    4    2    3
 -5  SZX         1    4    3    1
 -1     10001 3.52603E+03 1.74304E+03 9.78128E+03-9.18172E+01-1.07725E+03 2.43853E+03
 -1     10002 1.46319E+04 1.46319E+04 3.41409E+04-4.23624E-04 2.23655E+03 1.49181E+04
 -1     10003 3.57348E+03 1.83714E+03 1.00441E+04 9.42840E+01 1.01297E+03 2.41083E+03
 -1     10004 1.50250E+04 1.50250E+04 3.50582E+04 4.35005E-04-2.63288E+03 1.49827E+04
 -1     10005-3.57348E+03-1.83714E+03-1.00441E+04-9.42840E+01 1.01297E+03 2.41083E+03
 -1     10006-1.50250E+04-1.50250E+04-3.50582E+04-4.35005E-04-2.63288E+03 1.49827E+04
 -1     10007-3.52603E+03-1.74304E+03-9.78128E+03 9.18172E+01-1.07725E+03 2.43853E+03
 -1     10008-1.46319E+04-1.46319E+04-3.41409E+04 4.23624E-04 2.23655E+03 1.49181E+04
 -1     10009 1.07694E+03-9.07393E+02 1.68320E+04-1.40699E+03 2.94985E+02 5.33807E+03
 -1     10010 3.99664E+03 2.48849E+03 1.17938E+04 2.90033E+00-5.16308E+01 1.66295E+03
 -1     10011 1.05326E+03-8.79157E+02 1.72843E+04 1.44479E+03-4.36626E+02 5.34777E+03
 -1     10012 1.47285E+04 1.47285E+04 3.43663E+04 7.38695E-06-1.78875E+02 1.59592E+04
 -1     10013-1.05326E+03 8.79157E+02-1.72843E+04-1.44479E+03-4.36626E+02 5.34777E+03
 -1     10014-3.99664E+03-2.48849E+03-1.17938E+04-2.90033E+00-5.16308E+01 1.66295E+03
 -1     10015-1.07694E+03 9.07393E+02-1.68320E+04 1.40699E+03 2.94985E+02 5.33807E+03
 -1     10016-1.47285E+04-1.47285E+04-3.43663E+04-7.38695E-06-1.78875E+02 1.59592E+04
 -1     10017-1.95227E+02-1.95227E+02-4.55528E+02-5.57292E-04-2.11541E+02 1.34949E+04
 -1     10018-3.29851E+01-5.29757E+01-1.56328E+02-2.18809E+02-2.20425E+01 3.89517E+03
 -1     10019 1.95227E+02 1.95227E+02 4.55528E+02 5.57292E-04-2.11541E+02 1.34949E+04
 -1     10020 3.29851E+01 5.29757E+01 1.56328E+02 2.18809E+02-2.20425E+01 3.89517E+03
 -1     10021 1.33236E+03-5.53854E+02 1.79223E+04 1.93785E+01-7.09199E+01 5.79547E+03
 -1     10022-1.33236E+03 5.53854E+02-1.79223E+04-1.93785E+01-7.09199E+01 5.79547E+03
 -1     10023 7.34137E+00-1.76605E+01-2.37561E+02-1.46197E+03-7.68194E+01 5.35040E+03
 -1     10024-7.34137E+00 1.76605E+01 2.37561E+02 1.46197E+03-7.68194E+01 5.35040E+03
 -1     10025 4.54747E-13 7.95808E-13 5.91172E-12-9.76996E-14-1.91769E+02 1.44676E+04
 -1     10026-2.34195E-11 1.07079E-11-1.15818E-12-1.08002E-12-4.03454E+01 3.04377E+03
 -1     10027-1.98952E-11-1.45519E-11-7.21911E-12-3.22586E-12-7.60850E+01 5.74007E+03
 -3
    1PSTEP                         3           1           1          
    1PGM                1.000000E+00                                  
    1PGK                1.465545E+03                                  
    1PHID                         -1                                  
    1PSUBC                         0                                  
    1PMODE                         1                                  
  100CL  101 6.092839867          27                     2    1MODAL      1
 -4  ERROR       1    1
 -5  STR(%)      1    1    0    0
 -1     10001 3.57092E+01
 -1     10002 5.52990E+01
 -1     10003 3.59503E+01
 -1     10004 5.41729E+01
 -1     10005 3.59503E+01
 -1     10006 5.41729E+01
 -1     10007 3.57092E+01
 -1     10008 5.52990E+01
 -1     10009 5.52990E+01
 -1     10010 3.59503E+01
 -1     10011 5.41729E+01
 -1     10012 5.52990E+01
 -1     10013 5.41729E+01
 -1     10014 3.59503E+01
 -1     10015 5.52990E+01
 -1     10016 5.52990E+01
 -1     10017 5.52990E+01
 -1     10018 3.59503E+01
 -1     10019 5.52990E+01
 -1     10020 3.59503E+01
 -1     10021 5.52990E+01
 -1     10022 5.52990E+01
 -1     10023 5.52990E+01
 -1     10024 5.52990E+01
 -1     10025 5.52990E+01
 -1     10026 3.59503E+01
 -1     10027 5.52990E+01
 -3
    1PSTEP                         4           1           1          
    1PGM                1.000000E+00                                  
    1PGK                1.465545E+03                                  
    1PHID                         -1                                  
    1PSUBC                         0                                  
    1PMODE                         2                                  
  100CL  102 6.092839867          27                     2    2MODAL      1
 -4  DISP        4    1
 -5  D1          1    2    1    0
 -5  D2          1    2    2    0
 -5  D3          1    2    3    0
 -5  ALL         1    2    0    0    1ALL
 -1     10001 7.85333E-07 1.88620E-05 8.20592E-06
 -1     10002 0.00000E+00 0.00000E+00 0.00000E+00
 -1     10003-2.85485E-07 1.88478E-05-7.99122E-06
 -1     10004 0.00000E+00 0.00000E+00 0.00000E+00
 -1     10005-2.85485E-07 1.88478E-05 7.99122E-06
 -1     10006 0.00000E+00 0.00000E+00 0.00000E+00
 -1     10007 7.85333E-07 1.88620E-05-8.20592E-06
 -1     10008 0.00000E+00 0.00000E+00 0.00000E+00
 -1     10009 1.62991E-06 9.27525E-06 6.20089E-06
 -1     10010 2.56257E-07 1.88642E-05 1.11653E-07
 -1     10011-1.38455E-06 9.23530E-06-6.03866E-06
 -1     10012 0.00000E+00 0.00000E+00 0.00000E+00
 -1     10013-1.38455E-06 9.23530E-06 6.03866E-06
 -1     10014 2.56257E-07 1.88642E-05-1.11653E-07
 -1     10015 1.62991E-06 9.27525E-06-6.20089E-06
 -1     10016 0.00000E+00 0.00000E+00 0.00000E+00
 -1     10017 0.00000E+00 0.00000E+00 0.00000E+00
 -1     10018 2.50046E-07 1.93327E-05 8.42340E-06
 -1     10019 0.00000E+00 0.00000E+00 0.00000E+00
 -1     10020 2.50046E-07 1.93327E-05-8.42340E-06
 -1     10021 1.30958E-07 8.35422E-06 8.05713E-08
 -1     10022 1.30958E-07 8.35422E-06-8.05713E-08
 -1     10023 1.10736E-07 9.87980E-06 6.07853E-06
 -1     10024 1.10736E-07 9.87980E-06-6.07853E-06
 -1     10025 0.00000E+00 0.00000E+00 0.00000E+00
 -1     10026 2.55348E-07 1.92642E-05 3.38813E-21
 -1     10027 1.18718E-07 8.95641E-06-1.69407E-21
 -3
    1PSTEP                         5           1           1          
    1PGM                1.000000E+00                                  
    1PGK                1.465545E+03                                  
    1PHID                         -1                                  
    1PSUBC                         0                                  
    1PMODE                         2                                  
  100CL  102 6.092839867          27                     2    2MODAL      1
 -4  STRESS      6    1
 -5  SXX         1    4    1    1
 -5  SYY         1    4    2    2
 -5  SZZ         1    4    3    3
 -5  SXY         1    4    1    2
 -5  SYZ         1    4    2    3
 -5  SZX         1    4    3    1
 -1     10001 1.83714E+03 3.57348E+03 1.00441E+04-9.42840E+01 2.41083E+03-1.01297E+03
 -1     10002 1.50250E+04 1.50250E+04 3.50582E+04-4.35005E-04 1.49827E+04 2.63288E+03
 -1     10003-1.74304E+03-3.52603E+03-9.78128E+03-9.18172E+01 2.43853E+03 1.07725E+03
 -1     10004-1.46319E+04-1.46319E+04-3.41409E+04-4.23624E-04 1.49181E+04-2.23655E+03
 -1     10005 1.74304E+03 3.52603E+03 9.78128E+03 9.18172E+01 2.43853E+03 1.07725E+03
 -1     10006 1.46319E+04 1.46319E+04 3.41409E+04 4.23624E-04 1.49181E+04-2.23655E+03
 -1     10007-1.83714E+03-3.57348E+03-1.00441E+04 9.42840E+01 2.41083E+03-1.01297E+03
 -1     10008-1.50250E+04-1.50250E+04-3.50582E+04 4.35005E-04 1.49827E+04 2.63288E+03
 -1     10009-8.79157E+02 1.05326E+03 1.72843E+04-1.44479E+03 5.34777E+03 4.36626E+02
 -1     10010 5.29757E+01 3.29851E+01 1.56328E+02-2.18809E+02 3.89517E+03 2.20425E+01
 -1     10011 9.07393E+02-1.07694E+03-1.68320E+04-1.40699E+03 5.33807E+03-2.94985E+02
 -1     10012 1.95227E+02 1.95227E+02 4.55528E+02-5.57292E-04 1.34949E+04 2.11541E+02
 -1     10013-9.07393E+02 1.07694E+03 1.68320E+04 1.40699E+03 5.33807E+03-2.94985E+02
 -1     10014-5.29757E+01-3.29851E+01-1.56328E+02 2.18809E+02 3.89517E+03 2.20425E+01
 -1     10015 8.79157E+02-1.05326E+03-1.72843E+04 1.44479E+03 5.34777E+03 4.36626E+02
 -1     10016-1.95227E+02-1.95227E+02-4.55528E+02 5.57292E-04 1.34949E+04 2.11541E+02
 -1     10017 1.47285E+04 1.47285E+04 3.43663E+04-7.38695E-06 1.59592E+04 1.78875E+02
 -1     10018 2.48849E+03 3.99664E+03 1.17938E+04-2.90033E+00 1.66295E+03 5.16308E+01
 -1     10019-1.47285E+04-1.47285E+04-3.43663E+04 7.38695E-06 1.59592E+04 1.78875E+02
 -1     10020-2.48849E+03-3.99664E+03-1.17938E+04 2.90033E+00 1.66295E+03 5.16308E+01
 -1     10021 1.76605E+01-7.34137E+00 2.37561E+02-1.46197E+03 5.35040E+03 7.68194E+01
 -1     10022-1.76605E+01 7.34137E+00-2.37561E+02 1.46197E+03 5.35040E+03 7.68194E+01
 -1     10023-5.53854E+02 1.33236E+03 1.79223E+04-1.93785E+01 5.79547E+03 7.09199E+01
 -1     10024 5.53854E+02-1.33236E+03-1.79223E+04 1.93785E+01 5.79547E+03 7.09199E+01
 -1     10025-3.69482E-12-4.09273E-12-7.73070E-12-3.57048E-13 1.44676E+04 1.91769E+02
 -1     10026 3.64011E-11 1.66409E-11 3.80354E-11-1.08855E-11 3.04377E+03 4.03454E+01
 -1     10027 5.68434E-13 2.50111E-12 8.07177E-12 7.81597E-13 5.74007E+03 7.60850E+01
 -3
    1PSTEP                         6           1           1          
    1PGM                1.000000E+00                                  
    1PGK                1.465545E+03                                  
    1PHID                         -1                                  
    1PSUBC                         0                                  
    1PMODE                         2                                  
  100CL  102 6.092839867          27                     2    2MODAL      1
 -4  ERROR       1    1
 -5  STR(%)      1    1    0    0
 -1     10001 3.59503E+01
 -1     10002 5.41729E+01
 -1     10003 3.57092E+01
 -1     10004 5.52990E+01
 -1     10005 3.57092E+01
 -1     10006 5.52990E+01
 -1     10007 3.59503E+01
 -1     10008 5.41729E+01
 -1     10009 5.41729E+01
 -1     10010 3.59503E+01
 -1     10011 5.52990E+01
 -1     10012 5.52990E+01
 -1     10013 5.52990E+01
 -1     10014 3.59503E+01
 -1     10015 5.41729E+01
 -1     10016 5.52990E+01
 -1     10017 5.52990E+01
 -1     10018 3.59503E+01
 -1     10019 5.52990E+01
 -1     10020 3.59503E+01
 -1     10021 5.52990E+01
 -1     10022 5.52990E+01
 -1     10023 5.52990E+01
 -1     10024 5.52990E+01
 -1     10025 5.52990E+01
 -1     10026 3.59503E+01
 -1     10027 5.52990E+01
 -3
    1PSTEP                         7           1           1          
    1PGM                1.000000E+00                                  
    1PGK                2.688850E+03                                  
    1PHID                         -1                                  
    1PSUBC                         0                                  
    1PMODE                         3                                  
  100CL  103 8.252839318          27                     2    3MODAL      1
 -4  DISP        4    1
 -5  D1          1    2    1    0
 -5  D2          1    2    2    0
 -5  D3          1    2    3    0
 -5  ALL         1    2    0    0    1ALL
 -1     10001 2.06453E-05-2.06453E-05 1.69407E-20
 -1     10002 0.00000E+00 0.00000E+00 0.00000E+00
 -1     10003-2.06453E-05-2.06453E-05-3.38813E-21
 -1     10004 0.00000E+00 0.00000E+00 0.00000E+00
 -1     10005 2.06453E-05 2.06453E-05 1.56701E-20
 -1     10006 0.00000E+00 0.00000E+00 0.00000E+00
 -1     10007-2.06453E-05 2.06453E-05 0.00000E+00
 -1     10008 0.00000E+00 0.00000E+00 0.00000E+00
 -1     10009 1.45984E-05-1.45984E-05 1.27055E-20
 -1     10010-8.78797E-21-2.06453E-05 1.69407E-21
 -1     10011-1.45984E-05-1.45984E-05-5.08220E-21
 -1     10012 0.00000E+00 0.00000E+00 0.00000E+00
 -1     10013 1.45984E-05 1.45984E-05 5.92923E-21
 -1     10014-4.23516E-21 2.06453E-05 0.00000E+00
 -1     10015-1.45984E-05 1.45984E-05-1.69407E-21
 -1     10016 0.00000E+00 0.00000E+00 0.00000E+00
 -1     10017 0.00000E+00 0.00000E+00 0.00000E+00
 -1     10018 2.06453E-05 1.99053E-20 1.77877E-20
 -1     10019 0.00000E+00 0.00000E+00 0.00000E+00
 -1     10020-2.06453E-05 1.39760E-20 6.35275E-22
 -1     10021-1.27055E-21-1.45984E-05-2.11758E-21
 -1     10022-1.32349E-21 1.45984E-05 1.69407E-21
 -1     10023 1.45984E-05 5.92923E-21 7.19978E-21
 -1     10024-1.45984E-05 6.77626E-21 1.27055E-21
 -1     10025 0.00000E+00 0.00000E+00 0.00000E+00
 -1     10026-2.54110E-21 1.81053E-20 2.54110E-21
 -1     10027-2.54110E-21 7.41154E-21 8.47033E-22
 -3
    1PSTEP                         8           1           1          
    1PGM                1.000000E+00                                  
    1PGK                2.688850E+03                                  
    1PHID                         -1                                  
    1PSUBC                         0                                  
    1PMODE                         3                                  
  100CL  103 8.252839318          27                     2    3MODAL      1
 -4  STRESS      6    1
 -5  SXX         1    4    1    1
 -5  SYY         1    4    2    2
 -5  SZZ         1    4    3    3
 -5  SXY         1    4    1    2
 -5  SYZ         1    4    2    3
 -5  SZX         1    4    3    1
 -1     10001-4.06080E-11 8.64289E-13 5.86380E-12-9.54378E-12-9.76779E+03 9.76779E+03
 -1     10002 2.98218E-11 3.11773E-11 7.16618E-11-1.03075E-12-2.35815E+04 2.35815E+04
 -1     10003 7.40061E-12-8.67218E-11-1.66816E-11-3.79658E-11-9.76779E+03-9.76779E+03
 -1     10004-4.74337E-12-8.45585E-12-2.53047E-11 2.35764E-12-2.35815E+04-2.35815E+04
 -1     10005 4.45946E-11-3.19081E-11 4.47167E-11-1.73129E-11 9.76779E+03 9.76779E+03
 -1     10006 1.63467E-11 1.57403E-11 3.45282E-11 2.58148E-12 2.35815E+04 2.35815E+04
 -1     10007 6.29714E-11-1.43134E-11 2.17123E-11 7.97881E-12 9.76779E+03-9.76779E+03
 -1     10008-6.56371E-13-6.04929E-12-9.12678E-12-2.19041E-12 2.35815E+04-2.35815E+04
 -1     10009 7.55431E-11 2.33996E-11 6.52573E-11 5.48299E-12-1.66747E+04 1.66747E+04
 -1     10010 5.70648E-11 3.06235E-11 4.23148E-11-5.46010E-11-9.76779E+03-1.14824E-11
 -1     10011 1.19744E-11-9.20204E-13-3.79878E-12 6.35628E-12-1.66747E+04-1.66747E+04
 -1     10012-5.77718E-12-4.69880E-12-1.20368E-11-1.42387E-14-2.35815E+04-2.72848E-12
 -1     10013-7.17043E-11-4.29374E-11-1.48611E-12 3.73335E-11 1.66747E+04 1.66747E+04
 -1     10014-5.86782E-11-1.01844E-10-5.52722E-11-1.25692E-11 9.76779E+03-9.89075E-12
 -1     10015-3.81624E-11 7.03094E-12-9.33950E-12 2.74600E-12 1.66747E+04-1.66747E+04
 -1     10016 6.71517E-13 1.00751E-12 7.61840E-12-3.00595E-13 2.35815E+04-1.81899E-12
 -1     10017 1.68596E-11 1.57759E-11 4.00289E-11-3.40938E-13 1.11413E-11 2.35815E+04
 -1     10018 8.74546E-12 2.50254E-11 5.45995E-11 1.27227E-11-1.90425E-12 9.76779E+03
 -1     10019 9.29970E-12 5.69544E-12 9.83484E-12 1.38148E-12 1.00044E-11-2.35815E+04
 -1     10020 1.06528E-10 4.08060E-11 4.15320E-11-2.83170E-11 1.06866E-11-9.76779E+03
 -1     10021-1.49198E-11-2.28937E-11-7.78691E-12 1.13168E-11-1.66747E+04-3.55271E-12
 -1     10022 1.95736E-11 1.48122E-11 1.03154E-11 8.25309E-12 1.66747E+04-3.29692E-12
 -1     10023 1.36826E-11 3.17835E-11 5.09931E-11-5.22232E-12 5.85487E-12 1.66747E+04
 -1     10024-1.03122E-11-4.87851E-12-3.22318E-12 2.23960E-11 1.26192E-11-1.66747E+04
 -1     10025 4.15882E-14 7.87310E-13 3.80591E-12-6.66397E-14 1.04592E-11-4.09273E-12
 -1     10026 1.39298E-11 3.22797E-12 1.22619E-11-1.84100E-11 1.56319E-12 5.25802E-13
 -1     10027 9.83842E-12 1.05460E-11 1.14512E-11 4.21832E-12 9.74865E-12 1.36424E-12
 -3
    1PSTEP                         9           1           1          
    1PGM                1.000000E+00                                  
    1PGK                2.688850E+03                                  
    1PHID                         -1                                  
    1PSUBC                         0                                  
    1PMODE                         3                                  
  100CL  103 8.252839318          27                     2    3MODAL      1
 -4  ERROR       1    1
 -5  STR(%)      1    1    0    0
 -1     10001 5.40655E+01
 -1     10002 5.40655E+01
 -1     10003 5.40655E+01
 -1     10004 5.40655E+01
 -1     10005 5.40655E+01
 -1     10006 5.40655E+01
 -1     10007 5.40655E+01
 -1     10008 5.40655E+01
 -1     10009 5.40655E+01
 -1     10010 5.40655E+01
 -1     10011 5.40655E+01
 -1     10012 5.40655E+01
 -1     10013 5.40655E+01
 -1     10014 5.40655E+01
 -1     10015 5.40655E+01
 -1     10016 5.40655E+01
 -1     10017 5.40655E+01
 -1     10018 5.40655E+01
 -1     10019 5.40655E+01
 -1     10020 5.40655E+01
 -1     10021 5.40655E+01
 -1     10022 5.40655E+01
 -1     10023 5.40655E+01
 -1     10024 5.40655E+01
 -1     10025 5.40655E+01
 -1     10026 5.40655E+01
 -1     10027 5.40655E+01
 -3
    1PSTEP                        10           1           1          
    1PGM                1.000000E+00                                  
    1PGK                7.733355E+03                                  
    1PHID                         -1                                  
    1PSUBC                         0                                  
    1PMODE                         4                                  
  100CL  104 13.99600510          27                     2    4MODAL      1
 -4  DISP        4    1
 -5  D1          1    2    1    0
 -5  D2          1    2    2    0
 -5  D3          1    2    3    0
 -5  ALL         1    2    0    0    1ALL
 -1     10001-1.75268E-06-1.75268E-06-1.68082E-05
 -1     10002 0.00000E+00 0.00000E+00 0.00000E+00
 -1     10003-1.75268E-06 1.75268E-06-1.68082E-05
 -1     10004 0.00000E+00 0.00000E+00 0.00000E+00
 -1     10005 1.75268E-06-1.75268E-06-1.68082E-05
 -1     10006 0.00000E+00 0.00000E+00 0.00000E+00
 -1     10007 1.75268E-06 1.75268E-06-1.68082E-05
 -1     10008 0.00000E+00 0.00000E+00 0.00000E+00
 -1     10009-3.48547E-06-3.48547E-06-1.14128E-05
 -1     10010-1.95698E-06 8.47033E-22-1.75123E-05
 -1     10011-3.48547E-06 3.48547E-06-1.14128E-05
 -1     10012 0.00000E+00 0.00000E+00 0.00000E+00
 -1     10013 3.48547E-06-3.48547E-06-1.14128E-05
 -1     10014 1.95698E-06 1.69407E-21-1.75123E-05
 -1     10015 3.48547E-06 3.48547E-06-1.14128E-05
 -1     10016 0.00000E+00 0.00000E+00 0.00000E+00
 -1     10017 0.00000E+00 0.00000E+00 0.00000E+00
 -1     10018 1.69407E-20-1.95698E-06-1.75123E-05
 -1     10019 0.00000E+00 0.00000E+00 0.00000E+00
 -1     10020 2.54110E-21 1.95698E-06-1.75123E-05
 -1     10021-3.51298E-06-1.16467E-20-1.11112E-05
 -1     10022 3.51298E-06 8.89385E-21-1.11112E-05
 -1     10023 3.38813E-21-3.51298E-06-1.11112E-05
 -1     10024-3.38813E-21 3.51298E-06-1.11112E-05
 -1     10025 0.00000E+00 0.00000E+00 0.00000E+00
 -1     10026 5.08220E-21-8.47033E-22-1.81199E-05
 -1     10027-2.03288E-20-5.92923E-21-1.07541E-05
 -3
    1PSTEP                        11           1           1          
    1PGM                1.000000E+00                                  
    1PGK                7.733355E+03                                  
    1PHID                         -1                                  
    1PSUBC                         0                                  
    1PMODE                         4                                  
  100CL  104 13.99600510          27                     2    4MODAL      1
 -4  STRESS      6    1
 -5  SXX         1    4    1    1
 -5  SYY         1    4    2    2
 -5  SZZ         1    4    3    3
 -5  SXY         1    4    1    2
 -5  SYZ         1    4    2    3
 -5  SZX         1    4    3    1
 -1     10001 1.08244E+03 1.08244E+03-2.20105E+04-6.60025E+02 1.66167E+03 1.66167E+03
 -1     10002-2.76534E+04-2.76534E+04-6.45237E+04 5.92556E-04-5.63026E+03-5.63026E+03
 -1     10003 1.08244E+03 1.08244E+03-2.20105E+04 6.60025E+02-1.66167E+03 1.66167E+03
 -1     10004-2.76534E+04-2.76534E+04-6.45237E+04-5.92556E-04 5.63026E+03-5.63026E+03
 -1     10005 1.08244E+03 1.08244E+03-2.20105E+04 6.60025E+02 1.66167E+03-1.66167E+03
 -1     10006-2.76534E+04-2.76534E+04-6.45237E+04-5.92556E-04-5.63026E+03 5.63026E+03
 -1     10007 1.08244E+03 1.08244E+03-2.20105E+04-6.60025E+02-1.66167E+03-1.66167E+03
 -1     10008-2.76534E+04-2.76534E+04-6.45237E+04 5.92556E-04 5.63026E+03 5.63026E+03
 -1     10009 7.78814E+03 7.78814E+03-3.06229E+04-8.88797E+01-9.28452E+02-9.28452E+02
 -1     10010-1.99319E+02-8.59350E+02-2.72013E+04-1.40687E-11-4.54747E-12 1.53206E+03
 -1     10011 7.78814E+03 7.78814E+03-3.06229E+04 8.88797E+01 9.28452E+02-9.28452E+02
 -1     10012-2.69227E+04-2.69227E+04-6.28187E+04 2.60791E-13-1.94404E-11-5.67470E+03
 -1     10013 7.78814E+03 7.78814E+03-3.06229E+04 8.88797E+01-9.28452E+02 9.28452E+02
 -1     10014-1.99319E+02-8.59350E+02-2.72013E+04-2.15721E-11 7.50333E-12-1.53206E+03
 -1     10015 7.78814E+03 7.78814E+03-3.06229E+04-8.88797E+01 9.28452E+02 9.28452E+02
 -1     10016-2.69227E+04-2.69227E+04-6.28187E+04-1.66978E-13 1.47793E-11 5.67470E+03
 -1     10017-2.69227E+04-2.69227E+04-6.28187E+04-3.00426E-13-5.67470E+03 4.49063E-12
 -1     10018-8.59350E+02-1.99319E+02-2.72013E+04-3.74314E-11 1.53206E+03-2.86491E-11
 -1     10019-2.69227E+04-2.69227E+04-6.28187E+04 1.18128E-13 5.67470E+03-5.45697E-12
 -1     10020-8.59350E+02-1.99319E+02-2.72013E+04 6.96332E-12-1.53206E+03 4.88853E-12
 -1     10021 7.09064E+03 7.00176E+03-3.25467E+04 4.84057E-12-9.09495E-12-1.00380E+03
 -1     10022 7.09064E+03 7.00176E+03-3.25467E+04 1.73728E-11 4.32010E-12 1.00380E+03
 -1     10023 7.00176E+03 7.09064E+03-3.25467E+04-2.62723E-11-1.00380E+03 8.86757E-12
 -1     10024 7.00176E+03 7.09064E+03-3.25467E+04 2.52047E-11 1.00380E+03 1.21076E-11
 -1     10025-2.60575E+04-2.60575E+04-6.07999E+04-1.27676E-14-9.20863E-12-3.14913E-11
 -1     10026-2.04166E+03-2.04166E+03-3.21602E+04-1.05183E-11 3.04112E-12 2.07194E-11
 -1     10027 6.42123E+03 6.42123E+03-3.41976E+04 1.14219E-11-9.54969E-12-1.31735E-11
 -3
    1PSTEP                        12           1           1          
    1PGM                1.000000E+00                                  
    1PGK                7.733355E+03                                  
    1PHID                         -1                                  
    1PSUBC                         0                                  
    1PMODE                         4                                  
  100CL  104 13.99600510          27                     2    4MODAL      1
 -4  ERROR       1    1
 -5  STR(%)      1    1    0    0
 -1     10001 2.26366E+01
 -1     10002 9.60075E+00
 -1     10003 2.26366E+01
 -1     10004 9.60075E+00
 -1     10005 2.26366E+01
 -1     10006 9.60075E+00
 -1     10007 2.26366E+01
 -1     10008 9.60075E+00
 -1     10009 2.26366E+01
 -1     10010 2.26366E+01
 -1     10011 2.26366E+01
 -1     10012 9.60075E+00
 -1     10013 2.26366E+01
 -1     10014 2.26366E+01
 -1     10015 2.26366E+01
 -1     10016 9.60075E+00
 -1     10017 9.60075E+00
 -1     10018 2.26366E+01
 -1     10019 9.60075E+00
 -1     10020 2.26366E+01
 -1     10021 2.26366E+01
 -1     10022 2.26366E+01
 -1     10023 2.26366E+01
 -1     10024 2.26366E+01
 -1     10025 9.60075E+00
 -1     10026 2.26366E+01
 -1     10027 2.26366E+01
 -3
    1PSTEP                        13           1           1          
    1PGM                1.000000E+00                                  
    1PGK                1.187652E+04                                  
    1PHID                         -1                                  
    1PSUBC                         0                                  
    1PMODE                         5                                  
  100CL  105 17.34461826          27                     2    5MODAL      1
 -4  DISP        4    1
 -5  D1          1    2    1    0
 -5  D2          1    2    2    0
 -5  D3          1    2    3    0
 -5  ALL         1    2    0    0    1ALL
 -1     10001-6.40712E-06-5.79730E-06-2.53624E-05
 -1     10002 0.00000E+00 0.00000E+00 0.00000E+00
 -1     10003-6.49682E-06 5.89628E-06-2.57545E-05
 -1     10004 0.00000E+00 0.00000E+00 0.00000E+00
 -1     10005-6.49682E-06 5.89628E-06 2.57545E-05
 -1     10006 0.00000E+00 0.00000E+00 0.00000E+00
 -1     10007-6.40712E-06-5.79730E-06 2.53624E-05
 -1     10008 0.00000E+00 0.00000E+00 0.00000E+00
 -1     10009 1.35762E-05-6.12992E-06-1.37089E-05
 -1     10010-1.04021E-05 4.18694E-08-2.55771E-05
 -1     10011 1.34838E-05 5.92234E-06-1.39208E-05
 -1     10012 0.00000E+00 0.00000E+00 0.00000E+00
 -1     10013 1.34838E-05 5.92234E-06 1.39208E-05
 -1     10014-1.04021E-05 4.18694E-08 2.55771E-05