    1C
    1UModel: box_2                                                      
    1UUSER                                                              
    1UDATE              21.october.2025                                 
    1UTIME              16:17:46                                        
    1UHOST                                                              
    1UPGM               CalculiX                                        
    1UVERSION           Version 2.21                             
    1UCOMPILETIME       Sat Jul 29 10:52:01 CEST 2023                    
    1UDIR                                                               
    1UDBN                                                               
    1UMAT    1MAT1                                                      
    2C                            27                                     1
 -1     20001 0.00000E+00 0.00000E+00 2.00000E+02
 -1     20002 0.00000E+00 0.00000E+00 1.00000E+02
 -1     20003 0.00000E+00 1.00000E+02 2.00000E+02
 -1     20004 0.00000E+00 1.00000E+02 1.00000E+02
 -1     20005 1.00000E+02 0.00000E+00 2.00000E+02
 -1     20006 1.00000E+02 0.00000E+00 1.00000E+02
 -1     20007 1.00000E+02 1.00000E+02 2.00000E+02
 -1     20008 1.00000E+02 1.00000E+02 1.00000E+02
 -1     20009 0.00000E+00 0.00000E+00 1.50000E+02
 -1     20010 0.00000E+00 5.00000E+01 2.00000E+02
 -1     20011 0.00000E+00 1.00000E+02 1.50000E+02
 -1     20012 0.00000E+00 5.00000E+01 1.00000E+02
 -1     20013 1.00000E+02 0.00000E+00 1.50000E+02
 -1     20014 1.00000E+02 5.00000E+01 2.00000E+02
 -1     20015 1.00000E+02 1.00000E+02 1.50000E+02
 -1     20016 1.00000E+02 5.00000E+01 1.00000E+02
 -1     20017 5.00000E+01 0.00000E+00 1.00000E+02
 -1     20018 5.00000E+01 0.00000E+00 2.00000E+02
 -1     20019 5.00000E+01 1.00000E+02 1.00000E+02
 -1     20020 5.00000E+01 1.00000E+02 2.00000E+02
 -1     20021 0.00000E+00 5.00000E+01 1.50000E+02
 -1     20022 1.00000E+02 5.00000E+01 1.50000E+02
 -1     20023 5.00000E+01 0.00000E+00 1.50000E+02
 -1     20024 5.00000E+01 1.00000E+02 1.50000E+02
 -1     20025 5.00000E+01 5.00000E+01 1.00000E+02
 -1     20026 5.00000E+01 5.00000E+01 2.00000E+02
 -1     20027 5.00000E+01 5.00000E+01 1.50000E+02
 -3
    3C                             8                                     1
 -1     20049    1    0    1
 -2     20001     20009     20021     20010     20018     20023     20027     20026
 -1     20050    1    0    1
 -2     20018     20023     20027     20026     20005     20013     20022     20014
 -1     20051    1    0    1
 -2     20010     20021     20011     20003     20026     20027     20024     20020
 -1     20052    1    0    1
 -2     20026     20027     20024     20020     20014     20022     20015     20007
 -1     20053    1    0    1
 -2     20009     20002     20012     20021     20023     20017     20025     20027
 -1     20054    1    0    1
 -2     20023     20017     20025     20027     20013     20006     20016     20022
 -1     20055    1    0    1
 -2     20021     20012     20004     20011     20027     20025     20019     20024
 -1     20056    1    0    1
 -2     20027     20025     20019     20024     20022     20016     20008     20015
 -3
    1PSTEP                         1           1           1          
    1PGM                1.000000E+00                                  
    1PGK                1.465545E+03                                  
    1PHID                         -1                                  
    1PSUBC                         0                                  
    1PMODE                         1                                  
  100CL  101 6.092839867          27                     2    1MODAL      1
 -4  DISP        4    1
 -5  D1          1    2    1    0
 -5  D2          1    2    2    0
 -5  D3          1    2    3    0
 -5  ALL         1    2    0    0    1ALL
 -1     20001 0.00000E+00 0.00000E+00 0.00000E+00
 -1     20002-1.87245E-05-3.35028E-06 9.21975E-06
 -1     20003 0.00000E+00 0.00000E+00 0.00000E+00
 -1     20004-1.85643E-05-2.29142E-06 6.79653E-06
 -1     20005 0.00000E+00 0.00000E+00 0.00000E+00
 -1     20006-1.85643E-05-2.29142E-06-6.79653E-06
 -1     20007 0.00000E+00 0.00000E+00 0.00000E+00
 -1     20008-1.87245E-05-3.35028E-06-9.21975E-06
 -1     20009-9.37743E-06-2.87506E-06 6.96701E-06
 -1     20010 0.00000E+00 0.00000E+00 0.00000E+00
 -1     20011-8.92644E-06 1.05737E-07 5.13588E-06
 -1     20012-1.91169E-05-2.82223E-06 8.32935E-06
 -1     20013-8.92644E-06 1.05737E-07-5.13588E-06
 -1     20014 0.00000E+00 0.00000E+00 0.00000E+00
 -1     20015-9.37743E-06-2.87506E-06-6.96701E-06
 -1     20016-1.91169E-05-2.82223E-06-8.32935E-06
 -1     20017-1.86536E-05-2.89233E-06 1.26021E-06
 -1     20018 0.00000E+00 0.00000E+00 0.00000E+00
 -1     20019-1.86536E-05-2.89233E-06-1.26021E-06
 -1     20020 0.00000E+00 0.00000E+00 0.00000E+00
 -1     20021-9.76949E-06-1.24986E-06 6.01066E-06
 -1     20022-9.76949E-06-1.24986E-06-6.01066E-06
 -1     20023-8.26093E-06-1.47810E-06 9.09396E-07
 -1     20024-8.26093E-06-1.47810E-06-9.09396E-07
 -1     20025-1.90491E-05-2.88207E-06 3.38813E-21
 -1     20026 0.00000E+00 0.00000E+00 0.00000E+00
 -1     20027-8.85640E-06-1.33995E-06 2.54110E-21
 -3
    1PSTEP                         2           1           1          
    1PGM                1.000000E+00                                  
    1PGK                1.465545E+03                                  
    1PHID                         -1                                  
    1PSUBC                         0                                  
    1PMODE                         1                                  
  100CL  101 6.092839867          27                     2    1MODAL      1
 -4  STRESS      6    1
 -5  SXX         1    4    1    1
 -5  SYY         1    4    2    2
 -5  SZZ         1    4    3    3
 -5  SXY         1    4    1    2
 -5  SYZ         1    4    2    3
 -5  SZX         1    4    3    1
 -1     20001-1.68813E+04-1.68813E+04-3.93896E+04 4.88750E-04 4.64423E+03 1.51477E+04
 -1     20002-3.77793E+03-2.30117E+03-1.12850E+04 1.05933E+02-6.70692E+02 2.24125E+03
 -1     20003-1.24444E+04-1.24444E+04-2.90368E+04-3.60292E-04-1.70831E+02 1.44192E+04
 -1     20004-3.24231E+03-1.23903E+03-8.31898E+03-7.80905E+01 1.39620E+03 2.55397E+03
 -1     20005 1.24444E+04 1.24444E+04 2.90368E+04 3.60292E-04-1.70831E+02 1.44192E+04
 -1     20006 3.24231E+03 1.23903E+03 8.31898E+03 7.80905E+01 1.39620E+03 2.55397E+03
 -1     20007 1.68813E+04 1.68813E+04 3.93896E+04-4.88750E-04 4.64423E+03 1.51477E+04
 -1     20008 3.77793E+03 2.30117E+03 1.12850E+04-1.05933E+02-6.70692E+02 2.24125E+03
 -1     20009-9.19567E+02 7.23953E+02-1.94197E+04 1.62329E+03 1.16106E+03 5.33799E+03
 -1     20010-1.45641E+04-1.45640E+04-3.39826E+04 8.33753E-05 2.01894E+03 1.57811E+04
 -1     20011-1.18685E+03 1.04265E+03-1.43156E+04-1.19664E+03 4.37622E+02 5.22854E+03
 -1     20012-3.95201E+03-2.46070E+03-1.16621E+04 3.27356E+01 5.82749E+02 1.64438E+03
 -1     20013 1.18685E+03-1.04265E+03 1.43156E+04 1.19664E+03 4.37622E+02 5.22854E+03
 -1     20014 1.45641E+04 1.45640E+04 3.39826E+04-8.33753E-05 2.01894E+03 1.57811E+04
 -1     20015 9.19567E+02-7.23953E+02 1.94197E+04-1.62329E+03 1.16106E+03 5.33799E+03
 -1     20016 3.95201E+03 2.46070E+03 1.16621E+04-3.27356E+01 5.82749E+02 1.64438E+03
 -1     20017-3.72298E+02-5.97928E+02-1.76444E+03 2.16366E+02 2.48790E+02 3.85168E+03
 -1     20018-2.20350E+03-2.20350E+03-5.14147E+03 5.51070E-04 2.38763E+03 1.33442E+04
 -1     20019 3.72298E+02 5.97928E+02 1.76444E+03-2.16366E+02 2.48790E+02 3.85168E+03
 -1     20020 2.20350E+03 2.20350E+03 5.14147E+03-5.51070E-04 2.38763E+03 1.33442E+04
 -1     20021-1.31748E+03 5.47670E+02-1.77222E+04 2.18722E+02 8.00461E+02 5.73076E+03
 -1     20022 1.31748E+03-5.47670E+02 1.77222E+04-2.18722E+02 8.00461E+02 5.73076E+03
 -1     20023 8.28609E+01-1.99331E+02-2.68132E+03 1.44565E+03 8.67048E+02 5.29065E+03
 -1     20024-8.28609E+01 1.99331E+02 2.68132E+03-1.44565E+03 8.67048E+02 5.29065E+03
 -1     20025-1.12976E-11-1.53193E-11-1.20011E-11 1.29603E-11 4.55371E+02 3.00978E+03
 -1     20026-3.09797E-12-3.08376E-12-1.16529E-11 4.24549E-13 2.16447E+03 1.43061E+04
 -1     20027 2.69438E-11 1.22213E-11 5.34328E-12-9.80549E-12 8.58759E+02 5.67598E+03
 -3
    1PSTEP                         3           1           1          
    1PGM                1.000000E+00                                  
    1PGK                1.465545E+03                                  
    1PHID                         -1                                  
    1PSUBC                         0                                  
    1PMODE                         1                                  
  100CL  101 6.092839867          27                     2    1MODAL      1
 -4  ERROR       1    1
 -5  STR(%)      1    1    0    0
 -1     20001 5.41813E+01
 -1     20002 3.71581E+01
 -1     20003 6.06913E+01
 -1     20004 3.78264E+01
 -1     20005 6.06913E+01
 -1     20006 3.78264E+01
 -1     20007 5.41813E+01
 -1     20008 3.71581E+01
 -1     20009 5.41813E+01
 -1     20010 6.06913E+01
 -1     20011 6.06913E+01
 -1     20012 3.78264E+01
 -1     20013 6.06913E+01
 -1     20014 6.06913E+01
 -1     20015 5.41813E+01
 -1     20016 3.78264E+01
 -1     20017 3.78264E+01
 -1     20018 6.06913E+01
 -1     20019 3.78264E+01
 -1     20020 6.06913E+01
 -1     20021 6.06913E+01
 -1     20022 6.06913E+01
 -1     20023 6.06913E+01
 -1     20024 6.06913E+01
 -1     20025 3.78264E+01
 -1     20026 6.06913E+01
 -1     20027 6.06913E+01
 -3
    1PSTEP                         4           1           1          
    1PGM                1.000000E+00                                  
    1PGK                1.465545E+03                                  
    1PHID                         -1                                  
    1PSUBC                         0                                  
    1PMODE                         2                                  
  100CL  102 6.092839867          27                     2    2MODAL      1
 -4  DISP        4    1
 -5  D1          1    2    1    0
 -5  D2          1    2    2    0
 -5  D3          1    2    3    0
 -5  ALL         1    2    0    0    1ALL
 -1     20001 0.00000E+00 0.00000E+00 0.00000E+00
 -1     20002-2.29142E-06 1.85643E-05-6.79653E-06
 -1     20003 0.00000E+00 0.00000E+00 0.00000E+00
 -1     20004-3.35028E-06 1.87245E-05 9.21975E-06
 -1     20005 0.00000E+00 0.00000E+00 0.00000E+00
 -1     20006-3.35028E-06 1.87245E-05-9.21975E-06
 -1     20007 0.00000E+00 0.00000E+00 0.00000E+00
 -1     20008-2.29142E-06 1.85643E-05 6.79653E-06
 -1     20009 1.05737E-07 8.92644E-06-5.13588E-06
 -1     20010 0.00000E+00 0.00000E+00 0.00000E+00
 -1     20011-2.87506E-06 9.37743E-06 6.96701E-06
 -1     20012-2.89233E-06 1.86536E-05 1.26021E-06
 -1     20013-2.87506E-06 9.37743E-06-6.96701E-06
 -1     20014 0.00000E+00 0.00000E+00 0.00000E+00
 -1     20015 1.05737E-07 8.92644E-06 5.13588E-06
 -1     20016-2.89233E-06 1.86536E-05-1.26021E-06
 -1     20017-2.82223E-06 1.91169E-05-8.32935E-06
 -1     20018 0.00000E+00 0.00000E+00 0.00000E+00
 -1     20019-2.82223E-06 1.91169E-05 8.32935E-06
 -1     20020 0.00000E+00 0.00000E+00 0.00000E+00
 -1     20021-1.47810E-06 8.26093E-06 9.09396E-07
 -1     20022-1.47810E-06 8.26093E-06-9.09396E-07
 -1     20023-1.24986E-06 9.76949E-06-6.01066E-06
 -1     20024-1.24986E-06 9.76949E-06 6.01066E-06
 -1     20025-2.88207E-06 1.90491E-05 1.01644E-20
 -1     20026 0.00000E+00 0.00000E+00 0.00000E+00
 -1     20027-1.33995E-06 8.85640E-06 1.35525E-20
 -3
    1PSTEP                         5           1           1          
    1PGM                1.000000E+00                                  
    1PGK                1.465545E+03                                  
    1PHID                         -1                                  
    1PSUBC                         0                                  
    1PMODE                         2                                  
  100CL  102 6.092839867          27                     2    2MODAL      1
 -4  STRESS      6    1
 -5  SXX         1    4    1    1
 -5  SYY         1    4    2    2
 -5  SZZ         1    4    3    3
 -5  SXY         1    4    1    2
 -5  SYZ         1    4    2    3
 -5  SZX         1    4    3    1
 -1     20001 1.24444E+04 1.24444E+04 2.90368E+04-3.60292E-04-1.44192E+04-1.70831E+02
 -1     20002 1.23903E+03 3.24231E+03 8.31898E+03-7.80905E+01-2.55397E+03 1.39620E+03
 -1     20003-1.68813E+04-1.68813E+04-3.93896E+04-4.88750E-04-1.51477E+04 4.64423E+03
 -1     20004-2.30117E+03-3.77793E+03-1.12850E+04-1.05933E+02-2.24125E+03-6.70692E+02
 -1     20005 1.68813E+04 1.68813E+04 3.93896E+04 4.88750E-04-1.51477E+04 4.64423E+03
 -1     20006 2.30117E+03 3.77793E+03 1.12850E+04 1.05933E+02-2.24125E+03-6.70692E+02
 -1     20007-1.24444E+04-1.24444E+04-2.90368E+04 3.60292E-04-1.44192E+04-1.70831E+02
 -1     20008-1.23903E+03-3.24231E+03-8.31898E+03 7.80905E+01-2.55397E+03 1.39620E+03
 -1     20009-1.04265E+03 1.18685E+03 1.43156E+04-1.19664E+03-5.22854E+03 4.37622E+02
 -1     20010-2.20350E+03-2.20350E+03-5.14147E+03-5.51070E-04-1.33442E+04 2.38763E+03
 -1     20011 7.23953E+02-9.19567E+02-1.94197E+04-1.62329E+03-5.33799E+03 1.16106E+03
 -1     20012-5.97928E+02-3.72298E+02-1.76444E+03-2.16366E+02-3.85168E+03 2.48790E+02
 -1     20013-7.23953E+02 9.19567E+02 1.94197E+04 1.62329E+03-5.33799E+03 1.16106E+03
 -1     20014 2.20350E+03 2.20350E+03 5.14147E+03 5.51070E-04-1.33442E+04 2.38763E+03
 -1     20015 1.04265E+03-1.18685E+03-1.43156E+04 1.19664E+03-5.22854E+03 4.37622E+02
 -1     20016 5.97928E+02 3.72298E+02 1.76444E+03 2.16366E+02-3.85168E+03 2.48790E+02
 -1     20017 2.46070E+03 3.95201E+03 1.16621E+04 3.27356E+01-1.64438E+03 5.82749E+02
 -1     20018 1.45640E+04 1.45641E+04 3.39826E+04 8.33753E-05-1.57811E+04 2.01894E+03
 -1     20019-2.46070E+03-3.95201E+03-1.16621E+04-3.27356E+01-1.64438E+03 5.82749E+02
 -1     20020-1.45640E+04-1.45641E+04-3.39826E+04-8.33753E-05-1.57811E+04 2.01894E+03
 -1     20021-1.99331E+02 8.28609E+01-2.68132E+03-1.44565E+03-5.29065E+03 8.67048E+02
 -1     20022 1.99331E+02-8.28609E+01 2.68132E+03 1.44565E+03-5.29065E+03 8.67048E+02
 -1     20023-5.47670E+02 1.31748E+03 1.77222E+04 2.18722E+02-5.73076E+03 8.00461E+02
 -1     20024 5.47670E+02-1.31748E+03-1.77222E+04-2.18722E+02-5.73076E+03 8.00461E+02
 -1     20025-3.14770E-11-4.42100E-11-7.38964E-12-2.12594E-11-3.00978E+03 4.55371E+02
 -1     20026-3.37117E-11-3.60814E-11-7.92113E-11-9.54792E-13-1.43061E+04 2.16447E+03
 -1     20027-2.25668E-11-2.80806E-11-3.66924E-11 9.90497E-12-5.67598E+03 8.58759E+02
 -3
    1PSTEP                         6           1           1          
    1PGM                1.000000E+00                                  
    1PGK                1.465545E+03                                  
    1PHID                         -1                                  
    1PSUBC                         0                                  
    1PMODE                         2                                  
  100CL  102 6.092839867          27                     2    2MODAL      1
 -4  ERROR       1    1
 -5  STR(%)      1    1    0    0
 -1     20001 6.06913E+01
 -1     20002 3.78264E+01
 -1     20003 5.41813E+01
 -1     20004 3.71581E+01
 -1     20005 5.41813E+01
 -1     20006 3.71581E+01
 -1     20007 6.06913E+01
 -1     20008 3.78264E+01
 -1     20009 6.06913E+01
 -1     20010 6.06913E+01
 -1     20011 5.41813E+01
 -1     20012 3.78264E+01
 -1     20013 5.41813E+01
 -1     20014 6.06913E+01
 -1     20015 6.06913E+01
 -1     20016 3.78264E+01
 -1     20017 3.78264E+01
 -1     20018 6.06913E+01
 -1     20019 3.78264E+01
 -1     20020 6.06913E+01
 -1     20021 6.06913E+01
 -1     20022 6.06913E+01
 -1     20023 6.06913E+01
 -1     20024 6.06913E+01
 -1     20025 3.78264E+01
 -1     20026 6.06913E+01
 -1     20027 6.06913E+01
 -3
    1PSTEP                         7           1           1          
    1PGM                1.000000E+00                                  
    1PGK                2.688850E+03                                  
    1PHID                         -1                                  
    1PSUBC                         0                                  
    1PMODE                         3                                  
  100CL  103 8.252839318          27                     2    3MODAL      1
 -4  DISP        4    1
 -5  D1          1    2    1    0
 -5  D2          1    2    2    0
 -5  D3          1    2    3    0
 -5  ALL         1    2    0    0    1ALL
 -1     20001 0.00000E+00 0.00000E+00 0.00000E+00
 -1     20002 2.06453E-05-2.06453E-05-2.03288E-20
 -1     20003 0.00000E+00 0.00000E+00 0.00000E+00
 -1     20004-2.06453E-05-2.06453E-05 4.23516E-21
 -1     20005 0.00000E+00 0.00000E+00 0.00000E+00
 -1     20006 2.06453E-05 2.06453E-05-5.50571E-21
 -1     20007 0.00000E+00 0.00000E+00 0.00000E+00
 -1     20008-2.06453E-05 2.06453E-05-4.65868E-21
 -1     20009 1.45984E-05-1.45984E-05-1.86347E-20
 -1     20010 0.00000E+00 0.00000E+00 0.00000E+00
 -1     20011-1.45984E-05-1.45984E-05 5.08220E-21
 -1     20012 6.35275E-21-2.06453E-05-6.77626E-21
 -1     20013 1.45984E-05 1.45984E-05-5.92923E-21
 -1     20014 0.00000E+00 0.00000E+00 0.00000E+00
 -1     20015-1.45984E-05 1.45984E-05 3.17637E-21
 -1     20016 0.00000E+00 2.06453E-05-5.08220E-21
 -1     20017 2.06453E-05 2.37169E-20-2.03288E-20
 -1     20018 0.00000E+00 0.00000E+00 0.00000E+00
 -1     20019-2.06453E-05 2.71051E-20 6.77626E-21
 -1     20020 0.00000E+00 0.00000E+00 0.00000E+00
 -1     20021 1.69407E-21-1.45984E-05-5.50571E-21
 -1     20022 2.96462E-21 1.45984E-05-3.38813E-21
 -1     20023 1.45984E-05 1.27055E-20-1.31290E-20
 -1     20024-1.45984E-05 1.01644E-20 5.08220E-21
 -1     20025 3.38813E-21 2.28699E-20-5.02926E-21
 -1     20026 0.00000E+00 0.00000E+00 0.00000E+00
 -1     20027 3.59989E-21 1.10114E-20-4.23516E-21
 -3
    1PSTEP                         8           1           1          
    1PGM                1.000000E+00                                  
    1PGK                2.688850E+03                                  
    1PHID                         -1                                  
    1PSUBC                         0                                  
    1PMODE                         3                                  
  100CL  103 8.252839318          27                     2    3MODAL      1
 -4  STRESS      6    1
 -5  SXX         1    4    1    1
 -5  SYY         1    4    2    2
 -5  SZZ         1    4    3    3
 -5  SXY         1    4    1    2
 -5  SYZ         1    4    2    3
 -5  SZX         1    4    3    1
 -1     20001 3.26426E-11 3.96003E-11 9.99367E-11 1.51277E-12 2.35815E+04-2.35815E+04
 -1     20002 9.99245E-11 8.73961E-11 6.33108E-11 2.47192E-11 9.76779E+03-9.76779E+03
 -1     20003-1.53704E-11-1.07607E-11-2.91844E-11-3.72733E-12 2.35815E+04 2.35815E+04
 -1     20004-3.44875E-11-4.70452E-11-2.09024E-11-1.43925E-11 9.76779E+03 9.76779E+03
 -1     20005 4.12791E-12 7.11514E-12 2.82746E-11-6.48045E-12-2.35815E+04-2.35815E+04
 -1     20006 4.46361E-11-5.85018E-12 9.85675E-12-1.96607E-11-9.76779E+03-9.76779E+03
 -1     20007-1.84524E-11-1.46716E-11-2.32779E-11 5.68364E-12-2.35815E+04 2.35815E+04
 -1     20008-7.32085E-11-9.79474E-12 8.00569E-12-2.92043E-11-9.76779E+03 9.76779E+03
 -1     20009-5.27496E-11-2.97757E-11 1.79317E-11-2.52846E-11 1.66747E+04-1.66747E+04
 -1     20010 1.89494E-11 1.70806E-11 3.39321E-11 2.19037E-12 2.35815E+04-1.13687E-12
 -1     20011-4.66561E-11-5.00871E-11-3.79168E-11 1.23142E-11 1.66747E+04 1.66747E+04
 -1     20012-6.31286E-12 3.97921E-12 4.63595E-12-1.05078E-11 9.76779E+03-3.18323E-12
 -1     20013-5.52505E-11-8.76475E-12-7.64324E-12 3.15048E-11-1.66747E+04-1.66747E+04
 -1     20014 1.29245E-11 7.79299E-12 2.04448E-11 9.90231E-13-2.35815E+04-8.86757E-12
 -1     20015 4.42832E-12-2.29320E-11 4.23189E-12-1.28344E-11-1.66747E+04 1.66747E+04
 -1     20016-1.00358E-11 1.36011E-11 8.18431E-12-2.34403E-11-9.76779E+03 4.54747E-12
 -1     20017 6.07243E-11 3.86664E-11 6.00557E-11-4.38056E-12 8.75389E-12-9.76779E+03
 -1     20018 2.18263E-11 2.86502E-11 7.02832E-11-5.08339E-13-2.29079E-11-2.35815E+04
 -1     20019-2.29714E-11 1.78845E-11-8.64124E-12 3.49340E-12-9.09495E-12 9.76779E+03
 -1     20020-1.84889E-11-1.41175E-11-3.11270E-11 1.83743E-12-2.20552E-11 2.35815E+04
 -1     20021 4.06431E-12-1.87598E-11 9.82095E-12-5.88622E-12 1.66747E+04-1.97531E-12
 -1     20022-3.10254E-12-9.92434E-12 6.76409E-12 1.32818E-11-1.66747E+04 9.66338E-13
 -1     20023-4.14419E-11-8.11169E-12 2.78233E-11 3.34149E-12-4.61853E-12-1.66747E+04
 -1     20024-1.81296E-11-1.28063E-11-2.35109E-11-5.99617E-12-9.49285E-12 1.66747E+04
 -1     20025-8.06859E-12 9.71740E-12 3.82955E-12-1.21637E-11 3.24007E-12 5.11591E-13
 -1     20026 1.52712E-11 1.30586E-11 2.62859E-11 8.95980E-13-2.04352E-11-6.50857E-12
 -1     20027 9.05494E-12 8.46098E-12 1.58157E-11-2.17798E-13-5.05196E-12-1.25766E-12
 -3
    1PSTEP                         9           1           1          
    1PGM                1.000000E+00                                  
    1PGK                2.688850E+03                                  
    1PHID                         -1                                  
    1PSUBC                         0                                  
    1PMODE                         3                                  
  100CL  103 8.252839318          27                     2    3MODAL      1
 -4  ERROR       1    1
 -5  STR(%)      1    1    0    0
 -1     20001 5.40655E+01
 -1     20002 5.40655E+01
 -1     20003 5.40655E+01
 -1     20004 5.40655E+01
 -1     20005 5.40655E+01
 -1     20006 5.40655E+01
 -1     20007 5.40655E+01
 -1     20008 5.40655E+01
 -1     20009 5.40655E+01
 -1     20010 5.40655E+01
 -1     20011 5.40655E+01
 -1     20012 5.40655E+01
 -1     20013 5.40655E+01
 -1     20014 5.40655E+01
 -1     20015 5.40655E+01
 -1     20016 5.40655E+01
 -1     20017 5.40655E+01
 -1     20018 5.40655E+01
 -1     20019 5.40655E+01
 -1     20020 5.40655E+01
 -1     20021 5.40655E+01
 -1     20022 5.40655E+01
 -1     20023 5.40655E+01
 -1     20024 5.40655E+01
 -1     20025 5.40655E+01
 -1     20026 5.40655E+01
 -1     20027 5.40655E+01
 -3
    1PSTEP                        10           1           1          
    1PGM                1.000000E+00                                  
    1PGK                7.733355E+03                                  
    1PHID                         -1                                  
    1PSUBC                         0                                  
    1PMODE                         4                                  
  100CL  104 13.99600510          27                     2    4MODAL      1
 -4  DISP        4    1
 -5  D1          1    2    1    0
 -5  D2          1    2    2    0
 -5  D3          1    2    3    0
 -5  ALL         1    2    0    0    1ALL
 -1     20001 0.00000E+00 0.00000E+00 0.00000E+00
 -1     20002 1.75268E-06 1.75268E-06-1.68082E-05
 -1     20003 0.00000E+00 0.00000E+00 0.00000E+00
 -1     20004 1.75268E-06-1.75268E-06-1.68082E-05
 -1     20005 0.00000E+00 0.00000E+00 0.00000E+00
 -1     20006-1.75268E-06 1.75268E-06-1.68082E-05
 -1     20007 0.00000E+00 0.00000E+00 0.00000E+00
 -1     20008-1.75268E-06-1.75268E-06-1.68082E-05
 -1     20009 3.48547E-06 3.48547E-06-1.14128E-05
 -1     20010 0.00000E+00 0.00000E+00 0.00000E+00
 -1     20011 3.48547E-06-3.48547E-06-1.14128E-05
 -1     20012 1.95698E-06 1.35525E-20-1.75123E-05
 -1     20013-3.48547E-06 3.48547E-06-1.14128E-05
 -1     20014 0.00000E+00 0.00000E+00 0.00000E+00
 -1     20015-3.48547E-06-3.48547E-06-1.14128E-05
 -1     20016-1.95698E-06-5.08220E-21-1.75123E-05
 -1     20017-5.08220E-21 1.95698E-06-1.75123E-05
 -1     20018 0.00000E+00 0.00000E+00 0.00000E+00
 -1     20019 5.92923E-21-1.95698E-06-1.75123E-05
 -1     20020 0.00000E+00 0.00000E+00 0.00000E+00
 -1     20021 3.51298E-06 1.69407E-20-1.11112E-05
 -1     20022-3.51298E-06-8.47033E-21-1.11112E-05
 -1     20023-6.77626E-21 3.51298E-06-1.11112E-05
 -1     20024-3.38813E-21-3.51298E-06-1.11112E-05
 -1     20025-3.38813E-21 2.71051E-20-1.81199E-05
 -1     20026 0.00000E+00 0.00000E+00 0.00000E+00
 -1     20027-1.18585E-20 1.18585E-20-1.07541E-05
 -3
    1PSTEP                        11           1           1          
    1PGM                1.000000E+00                                  
    1PGK                7.733355E+03                                  
    1PHID                         -1                                  
    1PSUBC                         0                                  
    1PMODE                         4                                  
  100CL  104 13.99600510          27                     2    4MODAL      1
 -4  STRESS      6    1
 -5  SXX         1    4    1    1
 -5  SYY         1    4    2    2
 -5  SZZ         1    4    3    3
 -5  SXY         1    4    1    2
 -5  SYZ         1    4    2    3
 -5  SZX         1    4    3    1
 -1     20001 2.76534E+04 2.76534E+04 6.45237E+04-5.92556E-04-5.63026E+03-5.63026E+03
 -1     20002-1.08244E+03-1.08244E+03 2.20105E+04 6.60025E+02 1.66167E+03 1.66167E+03
 -1     20003 2.76534E+04 2.76534E+04 6.45237E+04 5.92556E-04 5.63026E+03-5.63026E+03
 -1     20004-1.08244E+03-1.08244E+03 2.20105E+04-6.60025E+02-1.66167E+03 1.66167E+03
 -1     20005 2.76534E+04 2.76534E+04 6.45237E+04 5.92556E-04-5.63026E+03 5.63026E+03
 -1     20006-1.08244E+03-1.08244E+03 2.20105E+04-6.60025E+02 1.66167E+03-1.66167E+03
 -1     20007 2.76534E+04 2.76534E+04 6.45237E+04-5.92556E-04 5.63026E+03 5.63026E+03
 -1     20008-1.08244E+03-1.08244E+03 2.20105E+04 6.60025E+02-1.66167E+03-1.66167E+03
 -1     20009-7.78814E+03-7.78814E+03 3.06229E+04 8.88797E+01-9.28452E+02-9.28452E+02
 -1     20010 2.69227E+04 2.69227E+04 6.28187E+04-1.39444E-13-2.65175E-11-5.67470E+03
 -1     20011-7.78814E+03-7.78814E+03 3.06229E+04-8.88797E+01 9.28452E+02-9.28452E+02
 -1     20012 1.99319E+02 8.59350E+02 2.72013E+04 2.93596E-11 3.29692E-12 1.53206E+03
 -1     20013-7.78814E+03-7.78814E+03 3.06229E+04-8.88797E+01-9.28452E+02 9.28452E+02
 -1     20014 2.69227E+04 2.69227E+04 6.28187E+04 6.47482E-13 1.38130E-11 5.67470E+03
 -1     20015-7.78814E+03-7.78814E+03 3.06229E+04 8.88797E+01 9.28452E+02 9.28452E+02
 -1     20016 1.99319E+02 8.59350E+02 2.72013E+04-3.45040E-11 2.16005E-11-1.53206E+03
 -1     20017 8.59350E+02 1.99319E+02 2.72013E+04-1.49782E-11 1.53206E+03-1.05729E-11
 -1     20018 2.69227E+04 2.69227E+04 6.28187E+04-7.91811E-13-5.67470E+03 1.45235E-11
 -1     20019 8.59350E+02 1.99319E+02 2.72013E+04 2.87059E-12-1.53206E+03 4.43379E-12
 -1     20020 2.69227E+04 2.69227E+04 6.28187E+04-6.03961E-13 5.67470E+03 4.26326E-12
 -1     20021-7.09064E+03-7.00176E+03 3.25467E+04 4.02700E-12-1.39835E-11-1.00380E+03
 -1     20022-7.09064E+03-7.00176E+03 3.25467E+04-3.08713E-11 1.13403E-11 1.00380E+03
 -1     20023-7.00176E+03-7.09064E+03 3.25467E+04-1.97087E-11-1.00380E+03 1.70530E-12
 -1     20024-7.00176E+03-7.09064E+03 3.25467E+04 8.14282E-12 1.00380E+03 4.07852E-12
 -1     20025 2.04166E+03 2.04166E+03 3.21602E+04-6.41265E-12-2.96154E-11 9.03810E-12
 -1     20026 2.60575E+04 2.60575E+04 6.07999E+04 2.96541E-13-1.78275E-11 1.99805E-11
 -1     20027-6.42123E+03-6.42123E+03 3.41976E+04-1.80014E-11-1.75220E-11 1.31024E-11
 -3
    1PSTEP                        12           1           1          
    1PGM                1.000000E+00                                  
    1PGK                7.733355E+03                                  
    1PHID                         -1                                  
    1PSUBC                         0                                  
    1PMODE                         4                                  
  100CL  104 13.99600510          27                     2    4MODAL      1
 -4  ERROR       1    1
 -5  STR(%)      1    1    0    0
 -1     20001 9.60075E+00
 -1     20002 2.26366E+01
 -1     20003 9.60075E+00
 -1     20004 2.26366E+01
 -1     20005 9.60075E+00
 -1     20006 2.26366E+01
 -1     20007 9.60075E+00
 -1     20008 2.26366E+01
 -1     20009 2.26366E+01
 -1     20010 9.60075E+00
 -1     20011 2.26366E+01
 -1     20012 2.26366E+01
 -1     20013 2.26366E+01
 -1     20014 9.60075E+00
 -1     20015 2.26366E+01
 -1     20016 2.26366E+01
 -1     20017 2.26366E+01
 -1     20018 9.60075E+00
 -1     20019 2.26366E+01
 -1     20020 9.60075E+00
 -1     20021 2.26366E+01
 -1     20022 2.26366E+01
 -1     20023 2.26366E+01
 -1     20024 2.26366E+01
 -1     20025 2.26366E+01
 -1     20026 9.60075E+00
 -1     20027 2.26366E+01
 -3
    1PSTEP                        13           1           1          
    1PGM                1.000000E+00                                  
    1PGK                1.187652E+04                                  
    1PHID                         -1                                  
    1PSUBC                         0                                  
    1PMODE                         5                                  
  100CL  105 17.34461826          27                     2    5MODAL      1
 -4  DISP        4    1
 -5  D1          1    2    1    0
 -5  D2          1    2    2    0
 -5  D3          1    2    3    0
 -5  ALL         1    2    0    0    1ALL
 -1     20001 0.00000E+00 0.00000E+00 0.00000E+00
 -1     20002-4.49995E-07-1.30153E-06 3.63989E-06
 -1     20003 0.00000E+00 0.00000E+00 0.00000E+00
 -1     20004 8.60950E-06-8.69568E-06-3.59624E-05
 -1     20005 0.00000E+00 0.00000E+00 0.00000E+00
 -1     20006 8.60950E-06-8.69568E-06 3.59624E-05
 -1     20007 0.00000E+00 0.00000E+00 0.00000E+00
 -1     20008-4.49995E-07-1.30153E-06-3.63989E-06
 -1     20009-1.32241E-05 1.42927E-05 1.96743E-06
 -1     20010 0.00000E+00 0.00000E+00 0.00000E+00
 -1     20011-3.88669E-06 6.67176E-06-1.94384E-05
 -1     20012 6.57755E-06-4.22871E-06-1.61730E-05
 -1     20013-3.88669E-06 6.67176E-06 1.94384E-05
 -1     20014 0.00000E+00 0.00000E+00 0.00000E+00